# vtk DataFile Version 3.0     
DassFlow Output File           
ASCII          
DATASET UNSTRUCTURED_GRID      
POINTS                      1111 double        
 0.00000000E+00  0.00000000E+00  0.00000000E+00
 1.00000000E+01  0.00000000E+00  0.00000000E+00
 2.00000000E+01  0.00000000E+00  0.00000000E+00
 3.00000000E+01  0.00000000E+00  0.00000000E+00
 4.00000000E+01  0.00000000E+00  0.00000000E+00
 5.00000000E+01  0.00000000E+00  0.00000000E+00
 6.00000000E+01  0.00000000E+00  0.00000000E+00
 7.00000000E+01  0.00000000E+00  0.00000000E+00
 8.00000000E+01  0.00000000E+00  0.00000000E+00
 9.00000000E+01  0.00000000E+00  0.00000000E+00
 1.00000000E+02  0.00000000E+00  0.00000000E+00
 1.10000000E+02  0.00000000E+00  0.00000000E+00
 1.20000000E+02  0.00000000E+00  0.00000000E+00
 1.30000000E+02  0.00000000E+00  0.00000000E+00
 1.40000000E+02  0.00000000E+00  0.00000000E+00
 1.50000000E+02  0.00000000E+00  0.00000000E+00
 1.60000000E+02  0.00000000E+00  0.00000000E+00
 1.70000000E+02  0.00000000E+00  0.00000000E+00
 1.80000000E+02  0.00000000E+00  0.00000000E+00
 1.90000000E+02  0.00000000E+00  0.00000000E+00
 2.00000000E+02  0.00000000E+00  0.00000000E+00
 2.10000000E+02  0.00000000E+00  0.00000000E+00
 2.20000000E+02  0.00000000E+00  0.00000000E+00
 2.30000000E+02  0.00000000E+00  0.00000000E+00
 2.40000000E+02  0.00000000E+00  0.00000000E+00
 2.50000000E+02  0.00000000E+00  0.00000000E+00
 2.60000000E+02  0.00000000E+00  0.00000000E+00
 2.70000000E+02  0.00000000E+00  0.00000000E+00
 2.80000000E+02  0.00000000E+00  0.00000000E+00
 2.90000000E+02  0.00000000E+00  0.00000000E+00
 3.00000000E+02  0.00000000E+00  0.00000000E+00
 3.10000000E+02  0.00000000E+00  0.00000000E+00
 3.20000000E+02  0.00000000E+00  0.00000000E+00
 3.30000000E+02  0.00000000E+00  0.00000000E+00
 3.40000000E+02  0.00000000E+00  0.00000000E+00
 3.50000000E+02  0.00000000E+00  0.00000000E+00
 3.60000000E+02  0.00000000E+00  0.00000000E+00
 3.70000000E+02  0.00000000E+00  0.00000000E+00
 3.80000000E+02  0.00000000E+00  0.00000000E+00
 3.90000000E+02  0.00000000E+00  0.00000000E+00
 4.00000000E+02  0.00000000E+00  0.00000000E+00
 4.10000000E+02  0.00000000E+00  0.00000000E+00
 4.20000000E+02  0.00000000E+00  0.00000000E+00
 4.30000000E+02  0.00000000E+00  0.00000000E+00
 4.40000000E+02  0.00000000E+00  0.00000000E+00
 4.50000000E+02  0.00000000E+00  0.00000000E+00
 4.60000000E+02  0.00000000E+00  0.00000000E+00
 4.70000000E+02  0.00000000E+00  0.00000000E+00
 4.80000000E+02  0.00000000E+00  0.00000000E+00
 4.90000000E+02  0.00000000E+00  0.00000000E+00
 5.00000000E+02  0.00000000E+00  0.00000000E+00
 5.10000000E+02  0.00000000E+00  0.00000000E+00
 5.20000000E+02  0.00000000E+00  0.00000000E+00
 5.30000000E+02  0.00000000E+00  0.00000000E+00
 5.40000000E+02  0.00000000E+00  0.00000000E+00
 5.50000000E+02  0.00000000E+00  0.00000000E+00
 5.60000000E+02  0.00000000E+00  0.00000000E+00
 5.70000000E+02  0.00000000E+00  0.00000000E+00
 5.80000000E+02  0.00000000E+00  0.00000000E+00
 5.90000000E+02  0.00000000E+00  0.00000000E+00
 6.00000000E+02  0.00000000E+00  0.00000000E+00
 6.10000000E+02  0.00000000E+00  0.00000000E+00
 6.20000000E+02  0.00000000E+00  0.00000000E+00
 6.30000000E+02  0.00000000E+00  0.00000000E+00
 6.40000000E+02  0.00000000E+00  0.00000000E+00
 6.50000000E+02  0.00000000E+00  0.00000000E+00
 6.60000000E+02  0.00000000E+00  0.00000000E+00
 6.70000000E+02  0.00000000E+00  0.00000000E+00
 6.80000000E+02  0.00000000E+00  0.00000000E+00
 6.90000000E+02  0.00000000E+00  0.00000000E+00
 7.00000000E+02  0.00000000E+00  0.00000000E+00
 7.10000000E+02  0.00000000E+00  0.00000000E+00
 7.20000000E+02  0.00000000E+00  0.00000000E+00
 7.30000000E+02  0.00000000E+00  0.00000000E+00
 7.40000000E+02  0.00000000E+00  0.00000000E+00
 7.50000000E+02  0.00000000E+00  0.00000000E+00
 7.60000000E+02  0.00000000E+00  0.00000000E+00
 7.70000000E+02  0.00000000E+00  0.00000000E+00
 7.80000000E+02  0.00000000E+00  0.00000000E+00
 7.90000000E+02  0.00000000E+00  0.00000000E+00
 8.00000000E+02  0.00000000E+00  0.00000000E+00
 8.10000000E+02  0.00000000E+00  0.00000000E+00
 8.20000000E+02  0.00000000E+00  0.00000000E+00
 8.30000000E+02  0.00000000E+00  0.00000000E+00
 8.40000000E+02  0.00000000E+00  0.00000000E+00
 8.50000000E+02  0.00000000E+00  0.00000000E+00
 8.60000000E+02  0.00000000E+00  0.00000000E+00
 8.70000000E+02  0.00000000E+00  0.00000000E+00
 8.80000000E+02  0.00000000E+00  0.00000000E+00
 8.90000000E+02  0.00000000E+00  0.00000000E+00
 9.00000000E+02  0.00000000E+00  0.00000000E+00
 9.10000000E+02  0.00000000E+00  0.00000000E+00
 9.20000000E+02  0.00000000E+00  0.00000000E+00
 9.30000000E+02  0.00000000E+00  0.00000000E+00
 9.40000000E+02  0.00000000E+00  0.00000000E+00
 9.50000000E+02  0.00000000E+00  0.00000000E+00
 9.60000000E+02  0.00000000E+00  0.00000000E+00
 9.70000000E+02  0.00000000E+00  0.00000000E+00
 9.80000000E+02  0.00000000E+00  0.00000000E+00
 9.90000000E+02  0.00000000E+00  0.00000000E+00
 1.00000000E+03  0.00000000E+00  0.00000000E+00
 0.00000000E+00  1.00000000E+01  0.00000000E+00
 1.00000000E+01  1.00000000E+01  0.00000000E+00
 2.00000000E+01  1.00000000E+01  0.00000000E+00
 3.00000000E+01  1.00000000E+01  0.00000000E+00
 4.00000000E+01  1.00000000E+01  0.00000000E+00
 5.00000000E+01  1.00000000E+01  0.00000000E+00
 6.00000000E+01  1.00000000E+01  0.00000000E+00
 7.00000000E+01  1.00000000E+01  0.00000000E+00
 8.00000000E+01  1.00000000E+01  0.00000000E+00
 9.00000000E+01  1.00000000E+01  0.00000000E+00
 1.00000000E+02  1.00000000E+01  0.00000000E+00
 1.10000000E+02  1.00000000E+01  0.00000000E+00
 1.20000000E+02  1.00000000E+01  0.00000000E+00
 1.30000000E+02  1.00000000E+01  0.00000000E+00
 1.40000000E+02  1.00000000E+01  0.00000000E+00
 1.50000000E+02  1.00000000E+01  0.00000000E+00
 1.60000000E+02  1.00000000E+01  0.00000000E+00
 1.70000000E+02  1.00000000E+01  0.00000000E+00
 1.80000000E+02  1.00000000E+01  0.00000000E+00
 1.90000000E+02  1.00000000E+01  0.00000000E+00
 2.00000000E+02  1.00000000E+01  0.00000000E+00
 2.10000000E+02  1.00000000E+01  0.00000000E+00
 2.20000000E+02  1.00000000E+01  0.00000000E+00
 2.30000000E+02  1.00000000E+01  0.00000000E+00
 2.40000000E+02  1.00000000E+01  0.00000000E+00
 2.50000000E+02  1.00000000E+01  0.00000000E+00
 2.60000000E+02  1.00000000E+01  0.00000000E+00
 2.70000000E+02  1.00000000E+01  0.00000000E+00
 2.80000000E+02  1.00000000E+01  0.00000000E+00
 2.90000000E+02  1.00000000E+01  0.00000000E+00
 3.00000000E+02  1.00000000E+01  0.00000000E+00
 3.10000000E+02  1.00000000E+01  0.00000000E+00
 3.20000000E+02  1.00000000E+01  0.00000000E+00
 3.30000000E+02  1.00000000E+01  0.00000000E+00
 3.40000000E+02  1.00000000E+01  0.00000000E+00
 3.50000000E+02  1.00000000E+01  0.00000000E+00
 3.60000000E+02  1.00000000E+01  0.00000000E+00
 3.70000000E+02  1.00000000E+01  0.00000000E+00
 3.80000000E+02  1.00000000E+01  0.00000000E+00
 3.90000000E+02  1.00000000E+01  0.00000000E+00
 4.00000000E+02  1.00000000E+01  0.00000000E+00
 4.10000000E+02  1.00000000E+01  0.00000000E+00
 4.20000000E+02  1.00000000E+01  0.00000000E+00
 4.30000000E+02  1.00000000E+01  0.00000000E+00
 4.40000000E+02  1.00000000E+01  0.00000000E+00
 4.50000000E+02  1.00000000E+01  0.00000000E+00
 4.60000000E+02  1.00000000E+01  0.00000000E+00
 4.70000000E+02  1.00000000E+01  0.00000000E+00
 4.80000000E+02  1.00000000E+01  0.00000000E+00
 4.90000000E+02  1.00000000E+01  0.00000000E+00
 5.00000000E+02  1.00000000E+01  0.00000000E+00
 5.10000000E+02  1.00000000E+01  0.00000000E+00
 5.20000000E+02  1.00000000E+01  0.00000000E+00
 5.30000000E+02  1.00000000E+01  0.00000000E+00
 5.40000000E+02  1.00000000E+01  0.00000000E+00
 5.50000000E+02  1.00000000E+01  0.00000000E+00
 5.60000000E+02  1.00000000E+01  0.00000000E+00
 5.70000000E+02  1.00000000E+01  0.00000000E+00
 5.80000000E+02  1.00000000E+01  0.00000000E+00
 5.90000000E+02  1.00000000E+01  0.00000000E+00
 6.00000000E+02  1.00000000E+01  0.00000000E+00
 6.10000000E+02  1.00000000E+01  0.00000000E+00
 6.20000000E+02  1.00000000E+01  0.00000000E+00
 6.30000000E+02  1.00000000E+01  0.00000000E+00
 6.40000000E+02  1.00000000E+01  0.00000000E+00
 6.50000000E+02  1.00000000E+01  0.00000000E+00
 6.60000000E+02  1.00000000E+01  0.00000000E+00
 6.70000000E+02  1.00000000E+01  0.00000000E+00
 6.80000000E+02  1.00000000E+01  0.00000000E+00
 6.90000000E+02  1.00000000E+01  0.00000000E+00
 7.00000000E+02  1.00000000E+01  0.00000000E+00
 7.10000000E+02  1.00000000E+01  0.00000000E+00
 7.20000000E+02  1.00000000E+01  0.00000000E+00
 7.30000000E+02  1.00000000E+01  0.00000000E+00
 7.40000000E+02  1.00000000E+01  0.00000000E+00
 7.50000000E+02  1.00000000E+01  0.00000000E+00
 7.60000000E+02  1.00000000E+01  0.00000000E+00
 7.70000000E+02  1.00000000E+01  0.00000000E+00
 7.80000000E+02  1.00000000E+01  0.00000000E+00
 7.90000000E+02  1.00000000E+01  0.00000000E+00
 8.00000000E+02  1.00000000E+01  0.00000000E+00
 8.10000000E+02  1.00000000E+01  0.00000000E+00
 8.20000000E+02  1.00000000E+01  0.00000000E+00
 8.30000000E+02  1.00000000E+01  0.00000000E+00
 8.40000000E+02  1.00000000E+01  0.00000000E+00
 8.50000000E+02  1.00000000E+01  0.00000000E+00
 8.60000000E+02  1.00000000E+01  0.00000000E+00
 8.70000000E+02  1.00000000E+01  0.00000000E+00
 8.80000000E+02  1.00000000E+01  0.00000000E+00
 8.90000000E+02  1.00000000E+01  0.00000000E+00
 9.00000000E+02  1.00000000E+01  0.00000000E+00
 9.10000000E+02  1.00000000E+01  0.00000000E+00
 9.20000000E+02  1.00000000E+01  0.00000000E+00
 9.30000000E+02  1.00000000E+01  0.00000000E+00
 9.40000000E+02  1.00000000E+01  0.00000000E+00
 9.50000000E+02  1.00000000E+01  0.00000000E+00
 9.60000000E+02  1.00000000E+01  0.00000000E+00
 9.70000000E+02  1.00000000E+01  0.00000000E+00
 9.80000000E+02  1.00000000E+01  0.00000000E+00
 9.90000000E+02  1.00000000E+01  0.00000000E+00
 1.00000000E+03  1.00000000E+01  0.00000000E+00
 0.00000000E+00  2.00000000E+01  0.00000000E+00
 1.00000000E+01  2.00000000E+01  0.00000000E+00
 2.00000000E+01  2.00000000E+01  0.00000000E+00
[...]
CELL_DATA                  1000
SCALARS         bathy           double 1       
LOOKUP_TABLE default           
 7.18660800E+00
 7.06785300E+00
 6.94978700E+00
 6.83250100E+00
 6.71609000E+00
 6.60065900E+00
 6.48631600E+00
 6.37317700E+00
 6.26136100E+00
 6.15099200E+00
 6.04219400E+00
 5.93509400E+00
 5.82981400E+00
 5.72647600E+00
 5.62519400E+00
 5.52607500E+00
 5.42921600E+00
 5.33470500E+00
 5.24261300E+00
 5.15299900E+00
 5.06590600E+00
 4.98136200E+00
 4.89937900E+00
 4.81995200E+00
 4.74306300E+00
 4.66868100E+00
 4.59676200E+00
 4.52725300E+00
 4.46009300E+00
 4.39521500E+00
 4.33254800E+00
 4.27202000E+00
 4.21355900E+00
 4.15709200E+00
 4.10255000E+00
 4.04986700E+00
 3.99898000E+00
 3.94982900E+00
 3.90235900E+00
 3.85651500E+00
 3.81224600E+00
 3.76950000E+00
 3.72822700E+00
 3.68837300E+00
 3.64988100E+00
 3.61269100E+00
 3.57673600E+00
 3.54194100E+00
 3.50822400E+00
 3.47549300E+00
 3.44364600E+00
 3.41257000E+00
 3.38214000E+00
 3.35221800E+00
 3.32265800E+00
 3.29329900E+00
 3.26397000E+00
 3.23449000E+00
 3.20466800E+00
 3.17430400E+00
 3.14319200E+00
 3.11112100E+00
 3.07787400E+00
 3.04323600E+00
 3.00698900E+00
 2.96892000E+00
 2.92881900E+00
 2.88648600E+00
 2.84172900E+00
 2.79436800E+00
 2.74424000E+00
 2.69119800E+00
 2.63511400E+00
 2.57588000E+00
 2.51341100E+00
 2.44764700E+00
 2.37855100E+00
 2.30611000E+00
 2.23033600E+00
 2.15126500E+00
 2.06895600E+00
 1.98348700E+00
 1.89495600E+00
 1.80348000E+00
 1.70918600E+00
 1.61221600E+00
 1.51271900E+00
 1.41085300E+00
 1.30677700E+00
 1.20065300E+00
 1.09264100E+00
 9.82898300E-01
 8.71579000E-01
 7.58829900E-01
 6.44791300E-01
 5.29595300E-01
 4.13365700E-01
 2.96217300E-01
 1.78256200E-01
 5.95791200E-02
 7.18660800E+00
 7.06785300E+00
 6.94978700E+00
 6.83250100E+00
 6.71609000E+00
 6.60065900E+00
 6.48631600E+00
 6.37317700E+00
 6.26136100E+00
 6.15099200E+00
 6.04219400E+00
 5.93509400E+00
 5.82981400E+00
 5.72647600E+00
 5.62519400E+00
 5.52607500E+00
 5.42921600E+00
 5.33470500E+00
 5.24261300E+00
 5.15299900E+00
 5.06590600E+00
 4.98136200E+00
 4.89937900E+00
 4.81995200E+00
 4.74306300E+00
 4.66868100E+00
 4.59676200E+00
 4.52725300E+00
 4.46009300E+00
 4.39521500E+00
 4.33254800E+00
 4.27202000E+00
 4.21355900E+00
 4.15709200E+00
 4.10255000E+00
 4.04986700E+00
 3.99898000E+00
 3.94982900E+00
 3.90235900E+00
 3.85651500E+00
 3.81224600E+00
 3.76950000E+00
 3.72822700E+00
 3.68837300E+00
 3.64988100E+00
 3.61269100E+00
 3.57673600E+00
 3.54194100E+00
 3.50822400E+00
 3.47549300E+00
 3.44364600E+00
 3.41257000E+00
 3.38214000E+00
 3.35221800E+00
 3.32265800E+00
 3.29329900E+00
 3.26397000E+00
 3.23449000E+00
 3.20466800E+00
 3.17430400E+00
 3.14319200E+00
 3.11112100E+00
 3.07787400E+00
 3.04323600E+00
 3.00698900E+00
 2.96892000E+00
 2.92881900E+00
 2.88648600E+00
 2.84172900E+00
 2.79436800E+00
 2.74424000E+00
 2.69119800E+00
 2.63511400E+00
 2.57588000E+00
 2.51341100E+00
 2.44764700E+00
 2.37855100E+00
 2.30611000E+00
 2.23033600E+00
 2.15126500E+00
 2.06895600E+00
 1.98348700E+00
 1.89495600E+00
 1.80348000E+00
 1.70918600E+00
 1.61221600E+00
 1.51271900E+00
 1.41085300E+00
 1.30677700E+00
 1.20065300E+00
 1.09264100E+00
 9.82898300E-01
 8.71579000E-01
 7.58829900E-01
 6.44791300E-01
 5.29595300E-01
 4.13365700E-01
 2.96217300E-01
 1.78256200E-01
 5.95791200E-02
 7.18660800E+00
 7.06785300E+00
 6.94978700E+00
 6.83250100E+00
 6.71609000E+00
 6.60065900E+00
 6.48631600E+00
 6.37317700E+00
 6.26136100E+00
 6.15099200E+00
 6.04219400E+00
 5.93509400E+00
 5.82981400E+00
 5.72647600E+00
 5.62519400E+00
 5.52607500E+00
 5.42921600E+00
 5.33470500E+00
 5.24261300E+00
 5.15299900E+00
 5.06590600E+00
 4.98136200E+00
 4.89937900E+00
 4.81995200E+00
 4.74306300E+00
 4.66868100E+00
 4.59676200E+00
 4.52725300E+00
 4.46009300E+00
 4.39521500E+00
 4.33254800E+00
 4.27202000E+00
 4.21355900E+00
 4.15709200E+00
 4.10255000E+00
 4.04986700E+00
 3.99898000E+00
 3.94982900E+00
 3.90235900E+00
 3.85651500E+00
 3.81224600E+00
 3.76950000E+00
 3.72822700E+00
 3.68837300E+00
 3.64988100E+00
 3.61269100E+00
 3.57673600E+00
 3.54194100E+00
 3.50822400E+00
 3.47549300E+00
 3.44364600E+00
 3.41257000E+00
 3.38214000E+00
 3.35221800E+00
 3.32265800E+00
 3.29329900E+00
 3.26397000E+00
 3.23449000E+00
 3.20466800E+00
 3.17430400E+00
 3.14319200E+00
 3.11112100E+00
 3.07787400E+00
 3.04323600E+00
 3.00698900E+00
 2.96892000E+00
 2.92881900E+00
 2.88648600E+00
 2.84172900E+00
 2.79436800E+00
 2.74424000E+00
 2.69119800E+00
 2.63511400E+00
 2.57588000E+00
 2.51341100E+00
 2.44764700E+00
 2.37855100E+00
 2.30611000E+00
 2.23033600E+00
 2.15126500E+00
 2.06895600E+00
 1.98348700E+00
 1.89495600E+00
 1.80348000E+00
 1.70918600E+00
 1.61221600E+00
 1.51271900E+00
 1.41085300E+00
 1.30677700E+00
 1.20065300E+00
 1.09264100E+00
 9.82898300E-01
 8.71579000E-01
 7.58829900E-01
 6.44791300E-01
 5.29595300E-01
 4.13365700E-01
 2.96217300E-01
 1.78256200E-01
 5.95791200E-02
 7.18660800E+00
 7.06785300E+00
 6.94978700E+00
 6.83250100E+00
 6.71609000E+00
 6.60065900E+00
 6.48631600E+00
 6.37317700E+00
 6.26136100E+00
 6.15099200E+00
 6.04219400E+00
 5.93509400E+00
 5.82981400E+00
 5.72647600E+00
 5.62519400E+00
 5.52607500E+00
 5.42921600E+00
 5.33470500E+00
 5.24261300E+00
 5.15299900E+00
 5.06590600E+00
 4.98136200E+00
 4.89937900E+00
 4.81995200E+00
 4.74306300E+00
 4.66868100E+00
 4.59676200E+00
 4.52725300E+00
 4.46009300E+00
 4.39521500E+00
 4.33254800E+00
 4.27202000E+00
 4.21355900E+00
 4.15709200E+00
 4.10255000E+00
 4.04986700E+00
 3.99898000E+00
 3.94982900E+00
 3.90235900E+00
 3.85651500E+00
 3.81224600E+00
 3.76950000E+00
 3.72822700E+00
 3.68837300E+00
 3.64988100E+00
 3.61269100E+00
 3.57673600E+00
 3.54194100E+00
 3.50822400E+00
 3.47549300E+00
 3.44364600E+00
 3.41257000E+00
 3.38214000E+00
 3.35221800E+00
 3.32265800E+00
 3.29329900E+00
 3.26397000E+00
 3.23449000E+00
 3.20466800E+00
 3.17430400E+00
 3.14319200E+00
 3.11112100E+00
 3.07787400E+00
 3.04323600E+00
 3.00698900E+00
 2.96892000E+00
 2.92881900E+00
 2.88648600E+00
 2.84172900E+00
 2.79436800E+00
 2.74424000E+00
 2.69119800E+00
 2.63511400E+00
 2.57588000E+00
 2.51341100E+00
 2.44764700E+00
 2.37855100E+00
 2.30611000E+00
 2.23033600E+00
 2.15126500E+00
 2.06895600E+00
 1.98348700E+00
 1.89495600E+00
 1.80348000E+00
 1.70918600E+00
 1.61221600E+00
 1.51271900E+00
 1.41085300E+00
 1.30677700E+00
 1.20065300E+00
 1.09264100E+00
 9.82898300E-01
 8.71579000E-01
 7.58829900E-01
 6.44791300E-01
 5.29595300E-01
 4.13365700E-01
 2.96217300E-01
 1.78256200E-01
 5.95791200E-02
 7.18660800E+00
 7.06785300E+00
 6.94978700E+00
 6.83250100E+00
 6.71609000E+00
 6.60065900E+00
 6.48631600E+00
 6.37317700E+00
 6.26136100E+00
 6.15099200E+00
 6.04219400E+00
 5.93509400E+00
 5.82981400E+00
 5.72647600E+00
 5.62519400E+00
 5.52607500E+00
 5.42921600E+00
 5.33470500E+00
 5.24261300E+00
 5.15299900E+00
 5.06590600E+00
 4.98136200E+00
 4.89937900E+00
 4.81995200E+00
 4.74306300E+00
 4.66868100E+00
 4.59676200E+00
 4.52725300E+00
 4.46009300E+00
 4.39521500E+00
 4.33254800E+00
 4.27202000E+00
 4.21355900E+00
 4.15709200E+00
 4.10255000E+00
 4.04986700E+00
 3.99898000E+00
 3.94982900E+00
 3.90235900E+00
 3.85651500E+00
 3.81224600E+00
 3.76950000E+00
 3.72822700E+00
 3.68837300E+00
 3.64988100E+00
 3.61269100E+00
 3.57673600E+00
 3.54194100E+00
 3.50822400E+00
 3.47549300E+00
 3.44364600E+00
 3.41257000E+00
 3.38214000E+00
 3.35221800E+00
 3.32265800E+00
 3.29329900E+00
 3.26397000E+00
 3.23449000E+00
 3.20466800E+00
 3.17430400E+00
 3.14319200E+00
 3.11112100E+00
 3.07787400E+00
 3.04323600E+00
 3.00698900E+00
 2.96892000E+00
 2.92881900E+00
 2.88648600E+00
 2.84172900E+00
 2.79436800E+00
 2.74424000E+00
 2.69119800E+00
 2.63511400E+00
 2.57588000E+00
 2.51341100E+00
 2.44764700E+00
 2.37855100E+00
 2.30611000E+00
 2.23033600E+00
 2.15126500E+00
 2.06895600E+00
 1.98348700E+00
 1.89495600E+00
 1.80348000E+00
 1.70918600E+00
 1.61221600E+00
 1.51271900E+00
 1.41085300E+00
 1.30677700E+00
 1.20065300E+00
 1.09264100E+00
 9.82898300E-01
 8.71579000E-01
 7.58829900E-01
 6.44791300E-01
 5.29595300E-01
 4.13365700E-01
 2.96217300E-01
 1.78256200E-01
 5.95791200E-02
 7.18660800E+00
 7.06785300E+00
 6.94978700E+00
 6.83250100E+00
 6.71609000E+00
 6.60065900E+00
 6.48631600E+00
 6.37317700E+00
 6.26136100E+00
 6.15099200E+00
 6.04219400E+00
 5.93509400E+00
 5.82981400E+00
 5.72647600E+00
 5.62519400E+00
 5.52607500E+00
 5.42921600E+00
 5.33470500E+00
 5.24261300E+00
 5.15299900E+00
 5.06590600E+00
 4.98136200E+00
 4.89937900E+00
 4.81995200E+00
 4.74306300E+00
 4.66868100E+00
 4.59676200E+00
 4.52725300E+00
 4.46009300E+00
 4.39521500E+00
 4.33254800E+00
 4.27202000E+00
 4.21355900E+00
 4.15709200E+00
 4.10255000E+00
 4.04986700E+00
 3.99898000E+00
 3.94982900E+00
 3.90235900E+00
 3.85651500E+00
 3.81224600E+00
 3.76950000E+00
 3.72822700E+00
 3.68837300E+00
 3.64988100E+00
 3.61269100E+00
 3.57673600E+00
 3.54194100E+00
 3.50822400E+00
 3.47549300E+00
 3.44364600E+00
 3.41257000E+00
 3.38214000E+00
 3.35221800E+00
 3.32265800E+00
 3.29329900E+00
 3.26397000E+00
 3.23449000E+00
 3.20466800E+00
 3.17430400E+00
 3.14319200E+00
 3.11112100E+00
 3.07787400E+00
 3.04323600E+00
 3.00698900E+00
 2.96892000E+00
 2.92881900E+00
 2.88648600E+00
 2.84172900E+00
 2.79436800E+00
 2.74424000E+00
 2.69119800E+00
 2.63511400E+00
 2.57588000E+00
 2.51341100E+00
 2.44764700E+00
 2.37855100E+00
 2.30611000E+00
 2.23033600E+00
 2.15126500E+00
 2.06895600E+00
 1.98348700E+00
 1.89495600E+00
 1.80348000E+00
 1.70918600E+00
 1.61221600E+00
 1.51271900E+00
 1.41085300E+00
 1.30677700E+00
 1.20065300E+00
 1.09264100E+00
 9.82898300E-01
 8.71579000E-01
 7.58829900E-01
 6.44791300E-01
 5.29595300E-01
 4.13365700E-01
 2.96217300E-01
 1.78256200E-01
 5.95791200E-02
 7.18660800E+00
 7.06785300E+00
 6.94978700E+00
 6.83250100E+00
 6.71609000E+00
 6.60065900E+00
 6.48631600E+00
 6.37317700E+00
 6.26136100E+00
 6.15099200E+00
 6.04219400E+00
 5.93509400E+00
 5.82981400E+00
 5.72647600E+00
 5.62519400E+00
 5.52607500E+00
 5.42921600E+00
 5.33470500E+00
 5.24261300E+00
 5.15299900E+00
 5.06590600E+00
 4.98136200E+00
 4.89937900E+00
 4.81995200E+00
 4.74306300E+00
 4.66868100E+00
 4.59676200E+00
 4.52725300E+00
 4.46009300E+00
 4.39521500E+00
 4.33254800E+00
 4.27202000E+00
 4.21355900E+00
 4.15709200E+00
 4.10255000E+00
 4.04986700E+00
 3.99898000E+00
 3.94982900E+00
 3.90235900E+00
 3.85651500E+00
 3.81224600E+00
 3.76950000E+00
 3.72822700E+00
 3.68837300E+00
 3.64988100E+00
 3.61269100E+00
 3.57673600E+00
 3.54194100E+00
 3.50822400E+00
 3.47549300E+00
 3.44364600E+00
 3.41257000E+00
 3.38214000E+00
 3.35221800E+00
 3.32265800E+00
 3.29329900E+00
 3.26397000E+00
 3.23449000E+00
 3.20466800E+00
 3.17430400E+00
 3.14319200E+00
 3.11112100E+00
 3.07787400E+00
 3.04323600E+00
 3.00698900E+00
 2.96892000E+00
 2.92881900E+00
 2.88648600E+00
 2.84172900E+00
 2.79436800E+00
 2.74424000E+00
 2.69119800E+00
 2.63511400E+00
 2.57588000E+00
 2.51341100E+00
 2.44764700E+00
 2.37855100E+00
 2.30611000E+00
 2.23033600E+00
 2.15126500E+00
 2.06895600E+00
 1.98348700E+00
 1.89495600E+00
 1.80348000E+00
 1.70918600E+00
 1.61221600E+00
 1.51271900E+00
 1.41085300E+00
 1.30677700E+00
 1.20065300E+00
 1.09264100E+00
 9.82898300E-01
 8.71579000E-01
 7.58829900E-01
 6.44791300E-01
 5.29595300E-01
 4.13365700E-01
 2.96217300E-01
 1.78256200E-01
 5.95791200E-02
 7.18660800E+00
 7.06785300E+00
 6.94978700E+00
 6.83250100E+00
 6.71609000E+00
 6.60065900E+00
 6.48631600E+00
 6.37317700E+00
 6.26136100E+00
 6.15099200E+00
 6.04219400E+00
 5.93509400E+00
 5.82981400E+00
 5.72647600E+00
 5.62519400E+00
 5.52607500E+00
 5.42921600E+00
 5.33470500E+00
 5.24261300E+00
 5.15299900E+00
 5.06590600E+00
 4.98136200E+00
 4.89937900E+00
 4.81995200E+00
 4.74306300E+00
 4.66868100E+00
 4.59676200E+00
 4.52725300E+00
 4.46009300E+00
 4.39521500E+00
 4.33254800E+00
 4.27202000E+00
 4.21355900E+00
 4.15709200E+00
 4.10255000E+00
 4.04986700E+00
 3.99898000E+00
 3.94982900E+00
 3.90235900E+00
 3.85651500E+00
 3.81224600E+00
 3.76950000E+00
 3.72822700E+00
 3.68837300E+00
 3.64988100E+00
 3.61269100E+00
 3.57673600E+00
 3.54194100E+00
 3.50822400E+00
 3.47549300E+00
 3.44364600E+00
 3.41257000E+00
 3.38214000E+00
 3.35221800E+00
 3.32265800E+00
 3.29329900E+00
 3.26397000E+00
 3.23449000E+00
 3.20466800E+00
 3.17430400E+00
 3.14319200E+00
 3.11112100E+00
 3.07787400E+00
 3.04323600E+00
 3.00698900E+00
 2.96892000E+00
 2.92881900E+00
 2.88648600E+00
 2.84172900E+00
 2.79436800E+00
 2.74424000E+00
 2.69119800E+00
 2.63511400E+00
 2.57588000E+00
 2.51341100E+00
 2.44764700E+00
 2.37855100E+00
 2.30611000E+00
 2.23033600E+00
 2.15126500E+00
 2.06895600E+00
 1.98348700E+00
 1.89495600E+00
 1.80348000E+00
 1.70918600E+00
 1.61221600E+00
 1.51271900E+00
 1.41085300E+00
 1.30677700E+00
 1.20065300E+00
 1.09264100E+00
 9.82898300E-01
 8.71579000E-01
 7.58829900E-01
 6.44791300E-01
 5.29595300E-01
 4.13365700E-01
 2.96217300E-01
 1.78256200E-01
 5.95791200E-02
 7.18660800E+00
 7.06785300E+00
 6.94978700E+00
 6.83250100E+00
 6.71609000E+00
 6.60065900E+00
 6.48631600E+00
 6.37317700E+00
 6.26136100E+00
 6.15099200E+00
 6.04219400E+00
 5.93509400E+00
 5.82981400E+00
 5.72647600E+00
 5.62519400E+00
 5.52607500E+00
 5.42921600E+00
 5.33470500E+00
 5.24261300E+00
 5.15299900E+00
 5.06590600E+00
 4.98136200E+00
 4.89937900E+00
 4.81995200E+00
 4.74306300E+00
 4.66868100E+00
 4.59676200E+00
 4.52725300E+00
 4.46009300E+00
 4.39521500E+00
 4.33254800E+00
 4.27202000E+00
 4.21355900E+00
 4.15709200E+00
 4.10255000E+00
 4.04986700E+00
 3.99898000E+00
 3.94982900E+00
 3.90235900E+00
 3.85651500E+00
 3.81224600E+00
 3.76950000E+00
 3.72822700E+00
 3.68837300E+00
 3.64988100E+00
 3.61269100E+00
 3.57673600E+00
 3.54194100E+00
 3.50822400E+00
 3.47549300E+00
 3.44364600E+00
 3.41257000E+00
 3.38214000E+00
 3.35221800E+00
 3.32265800E+00
 3.29329900E+00
 3.26397000E+00
 3.23449000E+00
 3.20466800E+00
 3.17430400E+00
 3.14319200E+00
 3.11112100E+00
 3.07787400E+00
 3.04323600E+00
 3.00698900E+00
 2.96892000E+00
 2.92881900E+00
 2.88648600E+00
 2.84172900E+00
 2.79436800E+00
 2.74424000E+00
 2.69119800E+00
 2.63511400E+00
 2.57588000E+00
 2.51341100E+00
 2.44764700E+00
 2.37855100E+00
 2.30611000E+00
 2.23033600E+00
 2.15126500E+00
 2.06895600E+00
 1.98348700E+00
 1.89495600E+00
 1.80348000E+00
 1.70918600E+00
 1.61221600E+00
 1.51271900E+00
 1.41085300E+00
 1.30677700E+00
 1.20065300E+00
 1.09264100E+00
 9.82898300E-01
 8.71579000E-01
 7.58829900E-01
 6.44791300E-01
 5.29595300E-01
 4.13365700E-01
 2.96217300E-01
 1.78256200E-01
 5.95791200E-02
 7.18660800E+00
 7.06785300E+00
 6.94978700E+00
 6.83250100E+00
 6.71609000E+00
 6.60065900E+00
 6.48631600E+00
 6.37317700E+00
 6.26136100E+00
 6.15099200E+00
 6.04219400E+00
 5.93509400E+00
 5.82981400E+00
 5.72647600E+00
 5.62519400E+00
 5.52607500E+00
 5.42921600E+00
 5.33470500E+00
 5.24261300E+00
 5.15299900E+00
 5.06590600E+00
 4.98136200E+00
 4.89937900E+00
 4.81995200E+00
 4.74306300E+00
 4.66868100E+00
 4.59676200E+00
 4.52725300E+00
 4.46009300E+00
 4.39521500E+00
 4.33254800E+00
 4.27202000E+00
 4.21355900E+00
 4.15709200E+00
 4.10255000E+00
 4.04986700E+00
 3.99898000E+00
 3.94982900E+00
 3.90235900E+00
 3.85651500E+00
 3.81224600E+00
 3.76950000E+00
 3.72822700E+00
 3.68837300E+00
 3.64988100E+00
 3.61269100E+00
 3.57673600E+00
 3.54194100E+00
 3.50822400E+00
 3.47549300E+00
 3.44364600E+00
 3.41257000E+00
 3.38214000E+00
 3.35221800E+00
 3.32265800E+00
 3.29329900E+00
 3.26397000E+00
 3.23449000E+00
 3.20466800E+00
 3.17430400E+00
 3.14319200E+00
 3.11112100E+00
 3.07787400E+00
 3.04323600E+00
 3.00698900E+00
 2.96892000E+00
 2.92881900E+00
 2.88648600E+00
 2.84172900E+00
 2.79436800E+00
 2.74424000E+00
 2.69119800E+00
 2.63511400E+00
 2.57588000E+00
 2.51341100E+00
 2.44764700E+00
 2.37855100E+00
 2.30611000E+00
 2.23033600E+00
 2.15126500E+00
 2.06895600E+00
 1.98348700E+00
 1.89495600E+00
 1.80348000E+00
 1.70918600E+00
 1.61221600E+00
 1.51271900E+00
 1.41085300E+00
 1.30677700E+00
 1.20065300E+00
 1.09264100E+00
 9.82898300E-01
 8.71579000E-01
 7.58829900E-01
 6.44791300E-01
 5.29595300E-01
 4.13365700E-01
 2.96217300E-01
 1.78256200E-01
 5.95791200E-02
SCALARS         h               double 1       
LOOKUP_TABLE default           
 2.58781023E-01
 2.47574462E-01
 2.38887945E-01
 2.31542459E-01
 2.25221137E-01
 2.16723945E-01
 2.09736484E-01
 2.03687547E-01
 1.97792841E-01
 1.93036569E-01
 2.36195423E-01
 2.63622979E-01
 2.87739352E-01
 3.03633495E-01
 3.01871433E-01
 3.09009178E-01
 3.11053337E-01
 2.99138253E-01
 3.05468088E-01
 3.06090372E-01
 3.30430608E-01
 3.56061283E-01
 3.53271995E-01
 3.41562196E-01
 3.62467316E-01
 3.59110562E-01
 3.54378982E-01
 3.75181908E-01
 3.71932160E-01
 3.73403757E-01
 3.93791647E-01
 3.90797757E-01
 3.94814708E-01
 4.11165178E-01
 4.08757090E-01
 4.15141017E-01
 4.28822206E-01
 4.26899310E-01
 4.34924219E-01
 4.48488970E-01
 4.50505453E-01
 4.57952422E-01
 4.66111177E-01
 4.64462436E-01
 4.69022455E-01
 4.79114402E-01
 5.05574716E-01
 5.15300033E-01
 5.30651418E-01
 5.59322530E-01
 5.71375106E-01
 5.78843764E-01
 5.97733142E-01
 6.00544779E-01
 6.07927830E-01
 6.26882020E-01
 6.33127442E-01
 6.39285702E-01
 6.45252878E-01
 6.54464854E-01
 6.66190534E-01
 6.77917232E-01
 6.69522958E-01
 6.58917836E-01
 6.44976621E-01
 6.35608503E-01
 6.23067638E-01
 6.02464153E-01
 5.82504214E-01
 5.68260510E-01
 5.78883793E-01
 5.56263971E-01
 5.39477474E-01
 5.60646339E-01
 5.35680913E-01
 5.15155962E-01
 5.43456562E-01
 5.16223726E-01
 4.92855463E-01
 5.30377649E-01
 5.04296908E-01
 4.76234303E-01
 5.17625288E-01
 4.87963318E-01
 4.55048235E-01
 5.01216297E-01
 4.72350657E-01
 4.36183530E-01
 4.86940425E-01
 4.48996858E-01
 3.78317716E-01
 4.02916136E-01
 3.82966929E-01
 3.25787269E-01
 3.94350406E-01
 3.85868604E-01
 4.47263533E-01
 6.13337818E-01
 7.55520837E-01
 8.91551634E-01
 2.41314996E-01
 2.32650750E-01
 2.19996223E-01
 2.17536929E-01
 2.14614751E-01
 2.03839593E-01
 2.01364930E-01
 1.97933393E-01
 1.89044592E-01
 1.88106426E-01
 2.29046242E-01
 2.26064920E-01
 2.73102836E-01
 2.97056265E-01
 2.77062641E-01
 3.09532136E-01
 3.14970071E-01
 2.83327386E-01
 3.11779874E-01
 3.12837345E-01
 3.02210722E-01
 3.68437118E-01
 3.63209866E-01
 3.19527297E-01
 3.79380333E-01
 3.65640423E-01
 3.34669246E-01
 3.91355842E-01
 3.75627477E-01
 3.56876901E-01
 4.08038079E-01
 3.92605971E-01
 3.81294349E-01
 4.23353029E-01
 4.09162724E-01
 4.03702442E-01
 4.39185488E-01
 4.26408347E-01
 4.25111130E-01
 4.56571771E-01
 4.49923997E-01
 4.50839137E-01
 4.74539828E-01
 4.66073199E-01
 4.69489133E-01
 4.94246044E-01
 5.01729472E-01
 5.14007160E-01
 5.39548115E-01
 5.55791534E-01
 5.71850324E-01
 5.88500764E-01
 5.93381571E-01
 5.99911950E-01
 6.14219299E-01
 6.19689488E-01
 6.27378161E-01
 6.41320494E-01
 6.46616481E-01
 6.59843739E-01
 6.74118186E-01
 6.65946554E-01
 6.59959134E-01
 6.60239470E-01
 6.39746133E-01
 6.29339592E-01
 6.30459383E-01
 6.03208541E-01
 5.86663481E-01
 5.90595701E-01
 5.67757195E-01
 5.52619562E-01
 5.62023588E-01
 5.44257588E-01
 5.28448275E-01
 5.41967653E-01
 5.23370878E-01
 5.05621996E-01
 5.23694469E-01
 5.07808815E-01
 4.90685656E-01
 5.11577181E-01
 4.92983705E-01
 4.72296134E-01
 4.94489497E-01
 4.75260512E-01
 4.53883164E-01
 4.78889870E-01
 4.59202829E-01
 4.26017667E-01
 4.10310998E-01
 3.91056757E-01
 3.49180406E-01
 3.82771507E-01
 3.79229002E-01
 3.45148784E-01
 4.69260455E-01
 6.10515976E-01
 7.56204449E-01
 8.96598534E-01
 2.14827498E-01
 2.05301462E-01
 2.04705093E-01
 2.04395091E-01
 1.96538136E-01
 1.95604069E-01
 1.94177061E-01
 1.86844072E-01
 1.86339401E-01
 1.85430756E-01
 1.87524495E-01
 2.35047332E-01
 2.69650581E-01
 2.57455023E-01
 2.89916714E-01
 3.07949439E-01
 2.81105168E-01
 3.05495067E-01
 3.14734287E-01
 2.83275200E-01
 3.42592725E-01
 3.67931282E-01
 3.13799557E-01
 3.66472034E-01
 3.74217198E-01
 3.26204759E-01
 3.81314835E-01
 3.83667120E-01
 3.40251604E-01
 3.98551392E-01
 3.99283682E-01
 3.62471838E-01
 4.18222275E-01
 4.14154325E-01
 3.83641127E-01
 4.36505740E-01
 4.29460487E-01
 4.05035409E-01