# vtk DataFile Version 3.0     
DassFlow Output File           
ASCII          
DATASET UNSTRUCTURED_GRID      
POINTS                      1111 double        
 0.00000000E+00  0.00000000E+00  0.00000000E+00
 1.00000000E+01  0.00000000E+00  0.00000000E+00
 2.00000000E+01  0.00000000E+00  0.00000000E+00
 3.00000000E+01  0.00000000E+00  0.00000000E+00
 4.00000000E+01  0.00000000E+00  0.00000000E+00
 5.00000000E+01  0.00000000E+00  0.00000000E+00
 6.00000000E+01  0.00000000E+00  0.00000000E+00
 7.00000000E+01  0.00000000E+00  0.00000000E+00
 8.00000000E+01  0.00000000E+00  0.00000000E+00
 9.00000000E+01  0.00000000E+00  0.00000000E+00
 1.00000000E+02  0.00000000E+00  0.00000000E+00
 1.10000000E+02  0.00000000E+00  0.00000000E+00
 1.20000000E+02  0.00000000E+00  0.00000000E+00
 1.30000000E+02  0.00000000E+00  0.00000000E+00
 1.40000000E+02  0.00000000E+00  0.00000000E+00
 1.50000000E+02  0.00000000E+00  0.00000000E+00
 1.60000000E+02  0.00000000E+00  0.00000000E+00
 1.70000000E+02  0.00000000E+00  0.00000000E+00
 1.80000000E+02  0.00000000E+00  0.00000000E+00
 1.90000000E+02  0.00000000E+00  0.00000000E+00
 2.00000000E+02  0.00000000E+00  0.00000000E+00
 2.10000000E+02  0.00000000E+00  0.00000000E+00
 2.20000000E+02  0.00000000E+00  0.00000000E+00
 2.30000000E+02  0.00000000E+00  0.00000000E+00
 2.40000000E+02  0.00000000E+00  0.00000000E+00
 2.50000000E+02  0.00000000E+00  0.00000000E+00
 2.60000000E+02  0.00000000E+00  0.00000000E+00
 2.70000000E+02  0.00000000E+00  0.00000000E+00
 2.80000000E+02  0.00000000E+00  0.00000000E+00
 2.90000000E+02  0.00000000E+00  0.00000000E+00
 3.00000000E+02  0.00000000E+00  0.00000000E+00
 3.10000000E+02  0.00000000E+00  0.00000000E+00
 3.20000000E+02  0.00000000E+00  0.00000000E+00
 3.30000000E+02  0.00000000E+00  0.00000000E+00
 3.40000000E+02  0.00000000E+00  0.00000000E+00
 3.50000000E+02  0.00000000E+00  0.00000000E+00
 3.60000000E+02  0.00000000E+00  0.00000000E+00
 3.70000000E+02  0.00000000E+00  0.00000000E+00
 3.80000000E+02  0.00000000E+00  0.00000000E+00
 3.90000000E+02  0.00000000E+00  0.00000000E+00
 4.00000000E+02  0.00000000E+00  0.00000000E+00
 4.10000000E+02  0.00000000E+00  0.00000000E+00
 4.20000000E+02  0.00000000E+00  0.00000000E+00
 4.30000000E+02  0.00000000E+00  0.00000000E+00
 4.40000000E+02  0.00000000E+00  0.00000000E+00
 4.50000000E+02  0.00000000E+00  0.00000000E+00
 4.60000000E+02  0.00000000E+00  0.00000000E+00
 4.70000000E+02  0.00000000E+00  0.00000000E+00
 4.80000000E+02  0.00000000E+00  0.00000000E+00
 4.90000000E+02  0.00000000E+00  0.00000000E+00
 5.00000000E+02  0.00000000E+00  0.00000000E+00
 5.10000000E+02  0.00000000E+00  0.00000000E+00
 5.20000000E+02  0.00000000E+00  0.00000000E+00
 5.30000000E+02  0.00000000E+00  0.00000000E+00
 5.40000000E+02  0.00000000E+00  0.00000000E+00
 5.50000000E+02  0.00000000E+00  0.00000000E+00
 5.60000000E+02  0.00000000E+00  0.00000000E+00
 5.70000000E+02  0.00000000E+00  0.00000000E+00
 5.80000000E+02  0.00000000E+00  0.00000000E+00
 5.90000000E+02  0.00000000E+00  0.00000000E+00
 6.00000000E+02  0.00000000E+00  0.00000000E+00
 6.10000000E+02  0.00000000E+00  0.00000000E+00
 6.20000000E+02  0.00000000E+00  0.00000000E+00
 6.30000000E+02  0.00000000E+00  0.00000000E+00
 6.40000000E+02  0.00000000E+00  0.00000000E+00
 6.50000000E+02  0.00000000E+00  0.00000000E+00
 6.60000000E+02  0.00000000E+00  0.00000000E+00
 6.70000000E+02  0.00000000E+00  0.00000000E+00
 6.80000000E+02  0.00000000E+00  0.00000000E+00
 6.90000000E+02  0.00000000E+00  0.00000000E+00
 7.00000000E+02  0.00000000E+00  0.00000000E+00
 7.10000000E+02  0.00000000E+00  0.00000000E+00
 7.20000000E+02  0.00000000E+00  0.00000000E+00
 7.30000000E+02  0.00000000E+00  0.00000000E+00
 7.40000000E+02  0.00000000E+00  0.00000000E+00
 7.50000000E+02  0.00000000E+00  0.00000000E+00
 7.60000000E+02  0.00000000E+00  0.00000000E+00
 7.70000000E+02  0.00000000E+00  0.00000000E+00
 7.80000000E+02  0.00000000E+00  0.00000000E+00
 7.90000000E+02  0.00000000E+00  0.00000000E+00
 8.00000000E+02  0.00000000E+00  0.00000000E+00
 8.10000000E+02  0.00000000E+00  0.00000000E+00
 8.20000000E+02  0.00000000E+00  0.00000000E+00
 8.30000000E+02  0.00000000E+00  0.00000000E+00
 8.40000000E+02  0.00000000E+00  0.00000000E+00
 8.50000000E+02  0.00000000E+00  0.00000000E+00
 8.60000000E+02  0.00000000E+00  0.00000000E+00
 8.70000000E+02  0.00000000E+00  0.00000000E+00
 8.80000000E+02  0.00000000E+00  0.00000000E+00
 8.90000000E+02  0.00000000E+00  0.00000000E+00
 9.00000000E+02  0.00000000E+00  0.00000000E+00
 9.10000000E+02  0.00000000E+00  0.00000000E+00
 9.20000000E+02  0.00000000E+00  0.00000000E+00
 9.30000000E+02  0.00000000E+00  0.00000000E+00
 9.40000000E+02  0.00000000E+00  0.00000000E+00
 9.50000000E+02  0.00000000E+00  0.00000000E+00
 9.60000000E+02  0.00000000E+00  0.00000000E+00
 9.70000000E+02  0.00000000E+00  0.00000000E+00
 9.80000000E+02  0.00000000E+00  0.00000000E+00
 9.90000000E+02  0.00000000E+00  0.00000000E+00
 1.00000000E+03  0.00000000E+00  0.00000000E+00
 0.00000000E+00  1.00000000E+01  0.00000000E+00
 1.00000000E+01  1.00000000E+01  0.00000000E+00
 2.00000000E+01  1.00000000E+01  0.00000000E+00
 3.00000000E+01  1.00000000E+01  0.00000000E+00
 4.00000000E+01  1.00000000E+01  0.00000000E+00
 5.00000000E+01  1.00000000E+01  0.00000000E+00
 6.00000000E+01  1.00000000E+01  0.00000000E+00
 7.00000000E+01  1.00000000E+01  0.00000000E+00
 8.00000000E+01  1.00000000E+01  0.00000000E+00
 9.00000000E+01  1.00000000E+01  0.00000000E+00
 1.00000000E+02  1.00000000E+01  0.00000000E+00
 1.10000000E+02  1.00000000E+01  0.00000000E+00
 1.20000000E+02  1.00000000E+01  0.00000000E+00
 1.30000000E+02  1.00000000E+01  0.00000000E+00
 1.40000000E+02  1.00000000E+01  0.00000000E+00
 1.50000000E+02  1.00000000E+01  0.00000000E+00
 1.60000000E+02  1.00000000E+01  0.00000000E+00
 1.70000000E+02  1.00000000E+01  0.00000000E+00
 1.80000000E+02  1.00000000E+01  0.00000000E+00
 1.90000000E+02  1.00000000E+01  0.00000000E+00
 2.00000000E+02  1.00000000E+01  0.00000000E+00
 2.10000000E+02  1.00000000E+01  0.00000000E+00
 2.20000000E+02  1.00000000E+01  0.00000000E+00
 2.30000000E+02  1.00000000E+01  0.00000000E+00
 2.40000000E+02  1.00000000E+01  0.00000000E+00
 2.50000000E+02  1.00000000E+01  0.00000000E+00
 2.60000000E+02  1.00000000E+01  0.00000000E+00
 2.70000000E+02  1.00000000E+01  0.00000000E+00
 2.80000000E+02  1.00000000E+01  0.00000000E+00
 2.90000000E+02  1.00000000E+01  0.00000000E+00
 3.00000000E+02  1.00000000E+01  0.00000000E+00
 3.10000000E+02  1.00000000E+01  0.00000000E+00
 3.20000000E+02  1.00000000E+01  0.00000000E+00
 3.30000000E+02  1.00000000E+01  0.00000000E+00
 3.40000000E+02  1.00000000E+01  0.00000000E+00
 3.50000000E+02  1.00000000E+01  0.00000000E+00
 3.60000000E+02  1.00000000E+01  0.00000000E+00
 3.70000000E+02  1.00000000E+01  0.00000000E+00
 3.80000000E+02  1.00000000E+01  0.00000000E+00
 3.90000000E+02  1.00000000E+01  0.00000000E+00
 4.00000000E+02  1.00000000E+01  0.00000000E+00
 4.10000000E+02  1.00000000E+01  0.00000000E+00
 4.20000000E+02  1.00000000E+01  0.00000000E+00
 4.30000000E+02  1.00000000E+01  0.00000000E+00
 4.40000000E+02  1.00000000E+01  0.00000000E+00
 4.50000000E+02  1.00000000E+01  0.00000000E+00
 4.60000000E+02  1.00000000E+01  0.00000000E+00
 4.70000000E+02  1.00000000E+01  0.00000000E+00
 4.80000000E+02  1.00000000E+01  0.00000000E+00
 4.90000000E+02  1.00000000E+01  0.00000000E+00
 5.00000000E+02  1.00000000E+01  0.00000000E+00
 5.10000000E+02  1.00000000E+01  0.00000000E+00
 5.20000000E+02  1.00000000E+01  0.00000000E+00
 5.30000000E+02  1.00000000E+01  0.00000000E+00
 5.40000000E+02  1.00000000E+01  0.00000000E+00
 5.50000000E+02  1.00000000E+01  0.00000000E+00
 5.60000000E+02  1.00000000E+01  0.00000000E+00
 5.70000000E+02  1.00000000E+01  0.00000000E+00
 5.80000000E+02  1.00000000E+01  0.00000000E+00
 5.90000000E+02  1.00000000E+01  0.00000000E+00
 6.00000000E+02  1.00000000E+01  0.00000000E+00
 6.10000000E+02  1.00000000E+01  0.00000000E+00
 6.20000000E+02  1.00000000E+01  0.00000000E+00
 6.30000000E+02  1.00000000E+01  0.00000000E+00
 6.40000000E+02  1.00000000E+01  0.00000000E+00
 6.50000000E+02  1.00000000E+01  0.00000000E+00
 6.60000000E+02  1.00000000E+01  0.00000000E+00
 6.70000000E+02  1.00000000E+01  0.00000000E+00
 6.80000000E+02  1.00000000E+01  0.00000000E+00
 6.90000000E+02  1.00000000E+01  0.00000000E+00
 7.00000000E+02  1.00000000E+01  0.00000000E+00
 7.10000000E+02  1.00000000E+01  0.00000000E+00
 7.20000000E+02  1.00000000E+01  0.00000000E+00
 7.30000000E+02  1.00000000E+01  0.00000000E+00
 7.40000000E+02  1.00000000E+01  0.00000000E+00
 7.50000000E+02  1.00000000E+01  0.00000000E+00
 7.60000000E+02  1.00000000E+01  0.00000000E+00
 7.70000000E+02  1.00000000E+01  0.00000000E+00
 7.80000000E+02  1.00000000E+01  0.00000000E+00
 7.90000000E+02  1.00000000E+01  0.00000000E+00
 8.00000000E+02  1.00000000E+01  0.00000000E+00
 8.10000000E+02  1.00000000E+01  0.00000000E+00
 8.20000000E+02  1.00000000E+01  0.00000000E+00
 8.30000000E+02  1.00000000E+01  0.00000000E+00
 8.40000000E+02  1.00000000E+01  0.00000000E+00
 8.50000000E+02  1.00000000E+01  0.00000000E+00
 8.60000000E+02  1.00000000E+01  0.00000000E+00
 8.70000000E+02  1.00000000E+01  0.00000000E+00
 8.80000000E+02  1.00000000E+01  0.00000000E+00
 8.90000000E+02  1.00000000E+01  0.00000000E+00
 9.00000000E+02  1.00000000E+01  0.00000000E+00
 9.10000000E+02  1.00000000E+01  0.00000000E+00
 9.20000000E+02  1.00000000E+01  0.00000000E+00
 9.30000000E+02  1.00000000E+01  0.00000000E+00
 9.40000000E+02  1.00000000E+01  0.00000000E+00
 9.50000000E+02  1.00000000E+01  0.00000000E+00
 9.60000000E+02  1.00000000E+01  0.00000000E+00
 9.70000000E+02  1.00000000E+01  0.00000000E+00
 9.80000000E+02  1.00000000E+01  0.00000000E+00
 9.90000000E+02  1.00000000E+01  0.00000000E+00
 1.00000000E+03  1.00000000E+01  0.00000000E+00
 0.00000000E+00  2.00000000E+01  0.00000000E+00
 1.00000000E+01  2.00000000E+01  0.00000000E+00
 2.00000000E+01  2.00000000E+01  0.00000000E+00
[...]
CELL_DATA                  1000
SCALARS         bathy           double 1       
LOOKUP_TABLE default           
 7.18660800E+00
 7.06785300E+00
 6.94978700E+00
 6.83250100E+00
 6.71609000E+00
 6.60065900E+00
 6.48631600E+00
 6.37317700E+00
 6.26136100E+00
 6.15099200E+00
 6.04219400E+00
 5.93509400E+00
 5.82981400E+00
 5.72647600E+00
 5.62519400E+00
 5.52607500E+00
 5.42921600E+00
 5.33470500E+00
 5.24261300E+00
 5.15299900E+00
 5.06590600E+00
 4.98136200E+00
 4.89937900E+00
 4.81995200E+00
 4.74306300E+00
 4.66868100E+00
 4.59676200E+00
 4.52725300E+00
 4.46009300E+00
 4.39521500E+00
 4.33254800E+00
 4.27202000E+00
 4.21355900E+00
 4.15709200E+00
 4.10255000E+00
 4.04986700E+00
 3.99898000E+00
 3.94982900E+00
 3.90235900E+00
 3.85651500E+00
 3.81224600E+00
 3.76950000E+00
 3.72822700E+00
 3.68837300E+00
 3.64988100E+00
 3.61269100E+00
 3.57673600E+00
 3.54194100E+00
 3.50822400E+00
 3.47549300E+00
 3.44364600E+00
 3.41257000E+00
 3.38214000E+00
 3.35221800E+00
 3.32265800E+00
 3.29329900E+00
 3.26397000E+00
 3.23449000E+00
 3.20466800E+00
 3.17430400E+00
 3.14319200E+00
 3.11112100E+00
 3.07787400E+00
 3.04323600E+00
 3.00698900E+00
 2.96892000E+00
 2.92881900E+00
 2.88648600E+00
 2.84172900E+00
 2.79436800E+00
 2.74424000E+00
 2.69119800E+00
 2.63511400E+00
 2.57588000E+00
 2.51341100E+00
 2.44764700E+00
 2.37855100E+00
 2.30611000E+00
 2.23033600E+00
 2.15126500E+00
 2.06895600E+00
 1.98348700E+00
 1.89495600E+00
 1.80348000E+00
 1.70918600E+00
 1.61221600E+00
 1.51271900E+00
 1.41085300E+00
 1.30677700E+00
 1.20065300E+00
 1.09264100E+00
 9.82898300E-01
 8.71579000E-01
 7.58829900E-01
 6.44791300E-01
 5.29595300E-01
 4.13365700E-01
 2.96217300E-01
 1.78256200E-01
 5.95791200E-02
 7.18660800E+00
 7.06785300E+00
 6.94978700E+00
 6.83250100E+00
 6.71609000E+00
 6.60065900E+00
 6.48631600E+00
 6.37317700E+00
 6.26136100E+00
 6.15099200E+00
 6.04219400E+00
 5.93509400E+00
 5.82981400E+00
 5.72647600E+00
 5.62519400E+00
 5.52607500E+00
 5.42921600E+00
 5.33470500E+00
 5.24261300E+00
 5.15299900E+00
 5.06590600E+00
 4.98136200E+00
 4.89937900E+00
 4.81995200E+00
 4.74306300E+00
 4.66868100E+00
 4.59676200E+00
 4.52725300E+00
 4.46009300E+00
 4.39521500E+00
 4.33254800E+00
 4.27202000E+00
 4.21355900E+00
 4.15709200E+00
 4.10255000E+00
 4.04986700E+00
 3.99898000E+00
 3.94982900E+00
 3.90235900E+00
 3.85651500E+00
 3.81224600E+00
 3.76950000E+00
 3.72822700E+00
 3.68837300E+00
 3.64988100E+00
 3.61269100E+00
 3.57673600E+00
 3.54194100E+00
 3.50822400E+00
 3.47549300E+00
 3.44364600E+00
 3.41257000E+00
 3.38214000E+00
 3.35221800E+00
 3.32265800E+00
 3.29329900E+00
 3.26397000E+00
 3.23449000E+00
 3.20466800E+00
 3.17430400E+00
 3.14319200E+00
 3.11112100E+00
 3.07787400E+00
 3.04323600E+00
 3.00698900E+00
 2.96892000E+00
 2.92881900E+00
 2.88648600E+00
 2.84172900E+00
 2.79436800E+00
 2.74424000E+00
 2.69119800E+00
 2.63511400E+00
 2.57588000E+00
 2.51341100E+00
 2.44764700E+00
 2.37855100E+00
 2.30611000E+00
 2.23033600E+00
 2.15126500E+00
 2.06895600E+00
 1.98348700E+00
 1.89495600E+00
 1.80348000E+00
 1.70918600E+00
 1.61221600E+00
 1.51271900E+00
 1.41085300E+00
 1.30677700E+00
 1.20065300E+00
 1.09264100E+00
 9.82898300E-01
 8.71579000E-01
 7.58829900E-01
 6.44791300E-01
 5.29595300E-01
 4.13365700E-01
 2.96217300E-01
 1.78256200E-01
 5.95791200E-02
 7.18660800E+00
 7.06785300E+00
 6.94978700E+00
 6.83250100E+00
 6.71609000E+00
 6.60065900E+00
 6.48631600E+00
 6.37317700E+00
 6.26136100E+00
 6.15099200E+00
 6.04219400E+00
 5.93509400E+00
 5.82981400E+00
 5.72647600E+00
 5.62519400E+00
 5.52607500E+00
 5.42921600E+00
 5.33470500E+00
 5.24261300E+00
 5.15299900E+00
 5.06590600E+00
 4.98136200E+00
 4.89937900E+00
 4.81995200E+00
 4.74306300E+00
 4.66868100E+00
 4.59676200E+00
 4.52725300E+00
 4.46009300E+00
 4.39521500E+00
 4.33254800E+00
 4.27202000E+00
 4.21355900E+00
 4.15709200E+00
 4.10255000E+00
 4.04986700E+00
 3.99898000E+00
 3.94982900E+00
 3.90235900E+00
 3.85651500E+00
 3.81224600E+00
 3.76950000E+00
 3.72822700E+00
 3.68837300E+00
 3.64988100E+00
 3.61269100E+00
 3.57673600E+00
 3.54194100E+00
 3.50822400E+00
 3.47549300E+00
 3.44364600E+00
 3.41257000E+00
 3.38214000E+00
 3.35221800E+00
 3.32265800E+00
 3.29329900E+00
 3.26397000E+00
 3.23449000E+00
 3.20466800E+00
 3.17430400E+00
 3.14319200E+00
 3.11112100E+00
 3.07787400E+00
 3.04323600E+00
 3.00698900E+00
 2.96892000E+00
 2.92881900E+00
 2.88648600E+00
 2.84172900E+00
 2.79436800E+00
 2.74424000E+00
 2.69119800E+00
 2.63511400E+00
 2.57588000E+00
 2.51341100E+00
 2.44764700E+00
 2.37855100E+00
 2.30611000E+00
 2.23033600E+00
 2.15126500E+00
 2.06895600E+00
 1.98348700E+00
 1.89495600E+00
 1.80348000E+00
 1.70918600E+00
 1.61221600E+00
 1.51271900E+00
 1.41085300E+00
 1.30677700E+00
 1.20065300E+00
 1.09264100E+00
 9.82898300E-01
 8.71579000E-01
 7.58829900E-01
 6.44791300E-01
 5.29595300E-01
 4.13365700E-01
 2.96217300E-01
 1.78256200E-01
 5.95791200E-02
 7.18660800E+00
 7.06785300E+00
 6.94978700E+00
 6.83250100E+00
 6.71609000E+00
 6.60065900E+00
 6.48631600E+00
 6.37317700E+00
 6.26136100E+00
 6.15099200E+00
 6.04219400E+00
 5.93509400E+00
 5.82981400E+00
 5.72647600E+00
 5.62519400E+00
 5.52607500E+00
 5.42921600E+00
 5.33470500E+00
 5.24261300E+00
 5.15299900E+00
 5.06590600E+00
 4.98136200E+00
 4.89937900E+00
 4.81995200E+00
 4.74306300E+00
 4.66868100E+00
 4.59676200E+00
 4.52725300E+00
 4.46009300E+00
 4.39521500E+00
 4.33254800E+00
 4.27202000E+00
 4.21355900E+00
 4.15709200E+00
 4.10255000E+00
 4.04986700E+00
 3.99898000E+00
 3.94982900E+00
 3.90235900E+00
 3.85651500E+00
 3.81224600E+00
 3.76950000E+00
 3.72822700E+00
 3.68837300E+00
 3.64988100E+00
 3.61269100E+00
 3.57673600E+00
 3.54194100E+00
 3.50822400E+00
 3.47549300E+00
 3.44364600E+00
 3.41257000E+00
 3.38214000E+00
 3.35221800E+00
 3.32265800E+00
 3.29329900E+00
 3.26397000E+00
 3.23449000E+00
 3.20466800E+00
 3.17430400E+00
 3.14319200E+00
 3.11112100E+00
 3.07787400E+00
 3.04323600E+00
 3.00698900E+00
 2.96892000E+00
 2.92881900E+00
 2.88648600E+00
 2.84172900E+00
 2.79436800E+00
 2.74424000E+00
 2.69119800E+00
 2.63511400E+00
 2.57588000E+00
 2.51341100E+00
 2.44764700E+00
 2.37855100E+00
 2.30611000E+00
 2.23033600E+00
 2.15126500E+00
 2.06895600E+00
 1.98348700E+00
 1.89495600E+00
 1.80348000E+00
 1.70918600E+00
 1.61221600E+00
 1.51271900E+00
 1.41085300E+00
 1.30677700E+00
 1.20065300E+00
 1.09264100E+00
 9.82898300E-01
 8.71579000E-01
 7.58829900E-01
 6.44791300E-01
 5.29595300E-01
 4.13365700E-01
 2.96217300E-01
 1.78256200E-01
 5.95791200E-02
 7.18660800E+00
 7.06785300E+00
 6.94978700E+00
 6.83250100E+00
 6.71609000E+00
 6.60065900E+00
 6.48631600E+00
 6.37317700E+00
 6.26136100E+00
 6.15099200E+00
 6.04219400E+00
 5.93509400E+00
 5.82981400E+00
 5.72647600E+00
 5.62519400E+00
 5.52607500E+00
 5.42921600E+00
 5.33470500E+00
 5.24261300E+00
 5.15299900E+00
 5.06590600E+00
 4.98136200E+00
 4.89937900E+00
 4.81995200E+00
 4.74306300E+00
 4.66868100E+00
 4.59676200E+00
 4.52725300E+00
 4.46009300E+00
 4.39521500E+00
 4.33254800E+00
 4.27202000E+00
 4.21355900E+00
 4.15709200E+00
 4.10255000E+00
 4.04986700E+00
 3.99898000E+00
 3.94982900E+00
 3.90235900E+00
 3.85651500E+00
 3.81224600E+00
 3.76950000E+00
 3.72822700E+00
 3.68837300E+00
 3.64988100E+00
 3.61269100E+00
 3.57673600E+00
 3.54194100E+00
 3.50822400E+00
 3.47549300E+00
 3.44364600E+00
 3.41257000E+00
 3.38214000E+00
 3.35221800E+00
 3.32265800E+00
 3.29329900E+00
 3.26397000E+00
 3.23449000E+00
 3.20466800E+00
 3.17430400E+00
 3.14319200E+00
 3.11112100E+00
 3.07787400E+00
 3.04323600E+00
 3.00698900E+00
 2.96892000E+00
 2.92881900E+00
 2.88648600E+00
 2.84172900E+00
 2.79436800E+00
 2.74424000E+00
 2.69119800E+00
 2.63511400E+00
 2.57588000E+00
 2.51341100E+00
 2.44764700E+00
 2.37855100E+00
 2.30611000E+00
 2.23033600E+00
 2.15126500E+00
 2.06895600E+00
 1.98348700E+00
 1.89495600E+00
 1.80348000E+00
 1.70918600E+00
 1.61221600E+00
 1.51271900E+00
 1.41085300E+00
 1.30677700E+00
 1.20065300E+00
 1.09264100E+00
 9.82898300E-01
 8.71579000E-01
 7.58829900E-01
 6.44791300E-01
 5.29595300E-01
 4.13365700E-01
 2.96217300E-01
 1.78256200E-01
 5.95791200E-02
 7.18660800E+00
 7.06785300E+00
 6.94978700E+00
 6.83250100E+00
 6.71609000E+00
 6.60065900E+00
 6.48631600E+00
 6.37317700E+00
 6.26136100E+00
 6.15099200E+00
 6.04219400E+00
 5.93509400E+00
 5.82981400E+00
 5.72647600E+00
 5.62519400E+00
 5.52607500E+00
 5.42921600E+00
 5.33470500E+00
 5.24261300E+00
 5.15299900E+00
 5.06590600E+00
 4.98136200E+00
 4.89937900E+00
 4.81995200E+00
 4.74306300E+00
 4.66868100E+00
 4.59676200E+00
 4.52725300E+00
 4.46009300E+00
 4.39521500E+00
 4.33254800E+00
 4.27202000E+00
 4.21355900E+00
 4.15709200E+00
 4.10255000E+00
 4.04986700E+00
 3.99898000E+00
 3.94982900E+00
 3.90235900E+00
 3.85651500E+00
 3.81224600E+00
 3.76950000E+00
 3.72822700E+00
 3.68837300E+00
 3.64988100E+00
 3.61269100E+00
 3.57673600E+00
 3.54194100E+00
 3.50822400E+00
 3.47549300E+00
 3.44364600E+00
 3.41257000E+00
 3.38214000E+00
 3.35221800E+00
 3.32265800E+00
 3.29329900E+00
 3.26397000E+00
 3.23449000E+00
 3.20466800E+00
 3.17430400E+00
 3.14319200E+00
 3.11112100E+00
 3.07787400E+00
 3.04323600E+00
 3.00698900E+00
 2.96892000E+00
 2.92881900E+00
 2.88648600E+00
 2.84172900E+00
 2.79436800E+00
 2.74424000E+00
 2.69119800E+00
 2.63511400E+00
 2.57588000E+00
 2.51341100E+00
 2.44764700E+00
 2.37855100E+00
 2.30611000E+00
 2.23033600E+00
 2.15126500E+00
 2.06895600E+00
 1.98348700E+00
 1.89495600E+00
 1.80348000E+00
 1.70918600E+00
 1.61221600E+00
 1.51271900E+00
 1.41085300E+00
 1.30677700E+00
 1.20065300E+00
 1.09264100E+00
 9.82898300E-01
 8.71579000E-01
 7.58829900E-01
 6.44791300E-01
 5.29595300E-01
 4.13365700E-01
 2.96217300E-01
 1.78256200E-01
 5.95791200E-02
 7.18660800E+00
 7.06785300E+00
 6.94978700E+00
 6.83250100E+00
 6.71609000E+00
 6.60065900E+00
 6.48631600E+00
 6.37317700E+00
 6.26136100E+00
 6.15099200E+00
 6.04219400E+00
 5.93509400E+00
 5.82981400E+00
 5.72647600E+00
 5.62519400E+00
 5.52607500E+00
 5.42921600E+00
 5.33470500E+00
 5.24261300E+00
 5.15299900E+00
 5.06590600E+00
 4.98136200E+00
 4.89937900E+00
 4.81995200E+00
 4.74306300E+00
 4.66868100E+00
 4.59676200E+00
 4.52725300E+00
 4.46009300E+00
 4.39521500E+00
 4.33254800E+00
 4.27202000E+00
 4.21355900E+00
 4.15709200E+00
 4.10255000E+00
 4.04986700E+00
 3.99898000E+00
 3.94982900E+00
 3.90235900E+00
 3.85651500E+00
 3.81224600E+00
 3.76950000E+00
 3.72822700E+00
 3.68837300E+00
 3.64988100E+00
 3.61269100E+00
 3.57673600E+00
 3.54194100E+00
 3.50822400E+00
 3.47549300E+00
 3.44364600E+00
 3.41257000E+00
 3.38214000E+00
 3.35221800E+00
 3.32265800E+00
 3.29329900E+00
 3.26397000E+00
 3.23449000E+00
 3.20466800E+00
 3.17430400E+00
 3.14319200E+00
 3.11112100E+00
 3.07787400E+00
 3.04323600E+00
 3.00698900E+00
 2.96892000E+00
 2.92881900E+00
 2.88648600E+00
 2.84172900E+00
 2.79436800E+00
 2.74424000E+00
 2.69119800E+00
 2.63511400E+00
 2.57588000E+00
 2.51341100E+00
 2.44764700E+00
 2.37855100E+00
 2.30611000E+00
 2.23033600E+00
 2.15126500E+00
 2.06895600E+00
 1.98348700E+00
 1.89495600E+00
 1.80348000E+00
 1.70918600E+00
 1.61221600E+00
 1.51271900E+00
 1.41085300E+00
 1.30677700E+00
 1.20065300E+00
 1.09264100E+00
 9.82898300E-01
 8.71579000E-01
 7.58829900E-01
 6.44791300E-01
 5.29595300E-01
 4.13365700E-01
 2.96217300E-01
 1.78256200E-01
 5.95791200E-02
 7.18660800E+00
 7.06785300E+00
 6.94978700E+00
 6.83250100E+00
 6.71609000E+00
 6.60065900E+00
 6.48631600E+00
 6.37317700E+00
 6.26136100E+00
 6.15099200E+00
 6.04219400E+00
 5.93509400E+00
 5.82981400E+00
 5.72647600E+00
 5.62519400E+00
 5.52607500E+00
 5.42921600E+00
 5.33470500E+00
 5.24261300E+00
 5.15299900E+00
 5.06590600E+00
 4.98136200E+00
 4.89937900E+00
 4.81995200E+00
 4.74306300E+00
 4.66868100E+00
 4.59676200E+00
 4.52725300E+00
 4.46009300E+00
 4.39521500E+00
 4.33254800E+00
 4.27202000E+00
 4.21355900E+00
 4.15709200E+00
 4.10255000E+00
 4.04986700E+00
 3.99898000E+00
 3.94982900E+00
 3.90235900E+00
 3.85651500E+00
 3.81224600E+00
 3.76950000E+00
 3.72822700E+00
 3.68837300E+00
 3.64988100E+00
 3.61269100E+00
 3.57673600E+00
 3.54194100E+00
 3.50822400E+00
 3.47549300E+00
 3.44364600E+00
 3.41257000E+00
 3.38214000E+00
 3.35221800E+00
 3.32265800E+00
 3.29329900E+00
 3.26397000E+00
 3.23449000E+00
 3.20466800E+00
 3.17430400E+00
 3.14319200E+00
 3.11112100E+00
 3.07787400E+00
 3.04323600E+00
 3.00698900E+00
 2.96892000E+00
 2.92881900E+00
 2.88648600E+00
 2.84172900E+00
 2.79436800E+00
 2.74424000E+00
 2.69119800E+00
 2.63511400E+00
 2.57588000E+00
 2.51341100E+00
 2.44764700E+00
 2.37855100E+00
 2.30611000E+00
 2.23033600E+00
 2.15126500E+00
 2.06895600E+00
 1.98348700E+00
 1.89495600E+00
 1.80348000E+00
 1.70918600E+00
 1.61221600E+00
 1.51271900E+00
 1.41085300E+00
 1.30677700E+00
 1.20065300E+00
 1.09264100E+00
 9.82898300E-01
 8.71579000E-01
 7.58829900E-01
 6.44791300E-01
 5.29595300E-01
 4.13365700E-01
 2.96217300E-01
 1.78256200E-01
 5.95791200E-02
 7.18660800E+00
 7.06785300E+00
 6.94978700E+00
 6.83250100E+00
 6.71609000E+00
 6.60065900E+00
 6.48631600E+00
 6.37317700E+00
 6.26136100E+00
 6.15099200E+00
 6.04219400E+00
 5.93509400E+00
 5.82981400E+00
 5.72647600E+00
 5.62519400E+00
 5.52607500E+00
 5.42921600E+00
 5.33470500E+00
 5.24261300E+00
 5.15299900E+00
 5.06590600E+00
 4.98136200E+00
 4.89937900E+00
 4.81995200E+00
 4.74306300E+00
 4.66868100E+00
 4.59676200E+00
 4.52725300E+00
 4.46009300E+00
 4.39521500E+00
 4.33254800E+00
 4.27202000E+00
 4.21355900E+00
 4.15709200E+00
 4.10255000E+00
 4.04986700E+00
 3.99898000E+00
 3.94982900E+00
 3.90235900E+00
 3.85651500E+00
 3.81224600E+00
 3.76950000E+00
 3.72822700E+00
 3.68837300E+00
 3.64988100E+00
 3.61269100E+00
 3.57673600E+00
 3.54194100E+00
 3.50822400E+00
 3.47549300E+00
 3.44364600E+00
 3.41257000E+00
 3.38214000E+00
 3.35221800E+00
 3.32265800E+00
 3.29329900E+00
 3.26397000E+00
 3.23449000E+00
 3.20466800E+00
 3.17430400E+00
 3.14319200E+00
 3.11112100E+00
 3.07787400E+00
 3.04323600E+00
 3.00698900E+00
 2.96892000E+00
 2.92881900E+00
 2.88648600E+00
 2.84172900E+00
 2.79436800E+00
 2.74424000E+00
 2.69119800E+00
 2.63511400E+00
 2.57588000E+00
 2.51341100E+00
 2.44764700E+00
 2.37855100E+00
 2.30611000E+00
 2.23033600E+00
 2.15126500E+00
 2.06895600E+00
 1.98348700E+00
 1.89495600E+00
 1.80348000E+00
 1.70918600E+00
 1.61221600E+00
 1.51271900E+00
 1.41085300E+00
 1.30677700E+00
 1.20065300E+00
 1.09264100E+00
 9.82898300E-01
 8.71579000E-01
 7.58829900E-01
 6.44791300E-01
 5.29595300E-01
 4.13365700E-01
 2.96217300E-01
 1.78256200E-01
 5.95791200E-02
 7.18660800E+00
 7.06785300E+00
 6.94978700E+00
 6.83250100E+00
 6.71609000E+00
 6.60065900E+00
 6.48631600E+00
 6.37317700E+00
 6.26136100E+00
 6.15099200E+00
 6.04219400E+00
 5.93509400E+00
 5.82981400E+00
 5.72647600E+00
 5.62519400E+00
 5.52607500E+00
 5.42921600E+00
 5.33470500E+00
 5.24261300E+00
 5.15299900E+00
 5.06590600E+00
 4.98136200E+00
 4.89937900E+00
 4.81995200E+00
 4.74306300E+00
 4.66868100E+00
 4.59676200E+00
 4.52725300E+00
 4.46009300E+00
 4.39521500E+00
 4.33254800E+00
 4.27202000E+00
 4.21355900E+00
 4.15709200E+00
 4.10255000E+00
 4.04986700E+00
 3.99898000E+00
 3.94982900E+00
 3.90235900E+00
 3.85651500E+00
 3.81224600E+00
 3.76950000E+00
 3.72822700E+00
 3.68837300E+00
 3.64988100E+00
 3.61269100E+00
 3.57673600E+00
 3.54194100E+00
 3.50822400E+00
 3.47549300E+00
 3.44364600E+00
 3.41257000E+00
 3.38214000E+00
 3.35221800E+00
 3.32265800E+00
 3.29329900E+00
 3.26397000E+00
 3.23449000E+00
 3.20466800E+00
 3.17430400E+00
 3.14319200E+00
 3.11112100E+00
 3.07787400E+00
 3.04323600E+00
 3.00698900E+00
 2.96892000E+00
 2.92881900E+00
 2.88648600E+00
 2.84172900E+00
 2.79436800E+00
 2.74424000E+00
 2.69119800E+00
 2.63511400E+00
 2.57588000E+00
 2.51341100E+00
 2.44764700E+00
 2.37855100E+00
 2.30611000E+00
 2.23033600E+00
 2.15126500E+00
 2.06895600E+00
 1.98348700E+00
 1.89495600E+00
 1.80348000E+00
 1.70918600E+00
 1.61221600E+00
 1.51271900E+00
 1.41085300E+00
 1.30677700E+00
 1.20065300E+00
 1.09264100E+00
 9.82898300E-01
 8.71579000E-01
 7.58829900E-01
 6.44791300E-01
 5.29595300E-01
 4.13365700E-01
 2.96217300E-01
 1.78256200E-01
 5.95791200E-02
SCALARS         h               double 1       
LOOKUP_TABLE default           
 2.57122407E-01
 2.45885521E-01
 2.37184665E-01
 2.29837225E-01
 2.23521023E-01
 2.15027771E-01
 2.08053179E-01
 2.02020993E-01
 1.96142412E-01
 1.91405605E-01
 2.34551840E-01
 2.61865783E-01
 2.85841507E-01
 3.01512046E-01
 2.99481736E-01
 3.06529591E-01
 3.08445253E-01
 2.96447024E-01
 3.02837979E-01
 3.03415606E-01
 3.27547226E-01
 3.52976075E-01
 3.50153425E-01
 3.38535621E-01
 3.59275591E-01
 3.55966093E-01
 3.51373263E-01
 3.71987275E-01
 3.68766377E-01
 3.70264575E-01
 3.90469495E-01
 3.87493725E-01
 3.91484864E-01
 4.07705407E-01
 4.05303808E-01
 4.11634560E-01
 4.25222099E-01
 4.23299913E-01
 4.31262516E-01
 4.44749399E-01
 4.46748417E-01
 4.54146555E-01
 4.62277352E-01
 4.60610100E-01
 4.65092228E-01
 4.75106086E-01
 5.01507976E-01
 5.11143058E-01
 5.26413632E-01
 5.55033335E-01
 5.67016667E-01
 5.74447556E-01
 5.93315065E-01
 5.96086616E-01
 6.03445789E-01
 6.22387779E-01
 6.28609484E-01
 6.34760529E-01
 6.40715730E-01
 6.49917434E-01
 6.61654695E-01
 6.73410359E-01
 6.65072558E-01
 6.54549911E-01
 6.40695459E-01
 6.31405217E-01
 6.18965228E-01
 5.98475664E-01
 5.78616689E-01
 5.64479595E-01
 5.75153212E-01
 5.52623143E-01
 5.35928299E-01
 5.57115002E-01
 5.32241164E-01
 5.11814149E-01
 5.40108970E-01
 5.12974266E-01
 4.89706679E-01
 5.27186731E-01
 5.01196742E-01
 4.73252691E-01
 5.14588965E-01
 4.85035822E-01
 4.52255455E-01
 4.98349830E-01
 4.69589603E-01
 4.33568376E-01
 4.84235009E-01
 4.46450249E-01
 3.76137466E-01
 4.00726460E-01
 3.80866596E-01
 3.23971841E-01
 3.92303285E-01
 3.83588828E-01
 4.42934668E-01
 6.08920999E-01
 7.51033708E-01
 8.87043353E-01
 2.39604844E-01
 2.30923870E-01
 2.18260438E-01
 2.15817791E-01
 2.12905002E-01
 2.02128737E-01
 1.99674397E-01
 1.96257120E-01
 1.87374807E-01
 1.86461830E-01
 2.27377710E-01
 2.24376022E-01
 2.71348870E-01
 2.95057166E-01
 2.74828137E-01
 3.07199007E-01
 3.12408981E-01
 2.80657218E-01
 3.09168913E-01
 3.10135028E-01
 2.99458563E-01
 3.65531007E-01
 3.59986056E-01
 3.16438330E-01
 3.76105477E-01
 3.62371222E-01
 3.31769309E-01
 3.88086070E-01
 3.72381697E-01
 3.53813101E-01
 4.04636363E-01
 3.89252815E-01
 3.78005750E-01
 4.19829725E-01
 4.05683967E-01
 4.00220298E-01
 4.35539869E-01
 4.22798503E-01
 4.21467139E-01
 4.52805125E-01
 4.46155719E-01
 4.47036091E-01
 4.70687425E-01
 4.62210409E-01
 4.65549787E-01
 4.90231715E-01
 4.97640865E-01
 5.09835304E-01
 5.35304305E-01
 5.51467238E-01
 5.67459867E-01
 5.84082195E-01
 5.88932484E-01
 5.95435304E-01
 6.09730314E-01
 6.15178975E-01
 6.22850321E-01
 6.36787079E-01
 6.42063620E-01
 6.55277237E-01
 6.69563989E-01
 6.61447959E-01
 6.55527666E-01
 6.55875142E-01
 6.35472272E-01
 6.25150168E-01
 6.26344280E-01
 5.99206593E-01
 5.82760271E-01
 5.86755895E-01
 5.64023980E-01
 5.48977110E-01
 5.58424171E-01
 5.40735668E-01
 5.25015437E-01
 5.38568049E-01
 5.20047071E-01
 5.02390944E-01
 5.20480245E-01
 5.04650674E-01
 4.87613205E-01
 5.08513752E-01
 4.89987447E-01
 4.69401706E-01
 4.91598170E-01
 4.72441216E-01
 4.51165096E-01
 4.76162377E-01
 4.56554980E-01
 4.23535206E-01
 4.08041730E-01
 3.88882559E-01
 3.47207741E-01
 3.80802122E-01
 3.77130704E-01
 3.42747000E-01
 4.65457867E-01
 6.06099580E-01
 7.51627481E-01
 8.92011212E-01
 2.13041132E-01
 2.03503253E-01
 2.02917255E-01
 2.02617886E-01
 1.94759991E-01
 1.93841933E-01
 1.92428686E-01
 1.85099942E-01
 1.84616314E-01
 1.83725846E-01
 1.85851362E-01
 2.33352392E-01
 2.67851179E-01
 2.55511793E-01
 2.87837407E-01
 3.05649619E-01
 2.78604545E-01
 3.02961146E-01
 3.12094640E-01
 2.80552279E-01
 3.39839721E-01
 3.64918158E-01
 3.10608454E-01
 3.63394218E-01
 3.70765617E-01
 3.23181314E-01
 3.78194469E-01
 3.80296985E-01
 3.37215114E-01
 3.95305786E-01
 3.95833769E-01
 3.59275779E-01
 4.14808174E-01
 4.10599296E-01
 3.80283993E-01
 4.32932941E-01
 4.25790609E-01
 4.01521073E-01