# vtk DataFile Version 3.0     
DassFlow Output File           
ASCII          
DATASET UNSTRUCTURED_GRID      
POINTS                      1111 double        
 0.00000000E+00  0.00000000E+00  0.00000000E+00
 1.00000000E+01  0.00000000E+00  0.00000000E+00
 2.00000000E+01  0.00000000E+00  0.00000000E+00
 3.00000000E+01  0.00000000E+00  0.00000000E+00
 4.00000000E+01  0.00000000E+00  0.00000000E+00
 5.00000000E+01  0.00000000E+00  0.00000000E+00
 6.00000000E+01  0.00000000E+00  0.00000000E+00
 7.00000000E+01  0.00000000E+00  0.00000000E+00
 8.00000000E+01  0.00000000E+00  0.00000000E+00
 9.00000000E+01  0.00000000E+00  0.00000000E+00
 1.00000000E+02  0.00000000E+00  0.00000000E+00
 1.10000000E+02  0.00000000E+00  0.00000000E+00
 1.20000000E+02  0.00000000E+00  0.00000000E+00
 1.30000000E+02  0.00000000E+00  0.00000000E+00
 1.40000000E+02  0.00000000E+00  0.00000000E+00
 1.50000000E+02  0.00000000E+00  0.00000000E+00
 1.60000000E+02  0.00000000E+00  0.00000000E+00
 1.70000000E+02  0.00000000E+00  0.00000000E+00
 1.80000000E+02  0.00000000E+00  0.00000000E+00
 1.90000000E+02  0.00000000E+00  0.00000000E+00
 2.00000000E+02  0.00000000E+00  0.00000000E+00
 2.10000000E+02  0.00000000E+00  0.00000000E+00
 2.20000000E+02  0.00000000E+00  0.00000000E+00
 2.30000000E+02  0.00000000E+00  0.00000000E+00
 2.40000000E+02  0.00000000E+00  0.00000000E+00
 2.50000000E+02  0.00000000E+00  0.00000000E+00
 2.60000000E+02  0.00000000E+00  0.00000000E+00
 2.70000000E+02  0.00000000E+00  0.00000000E+00
 2.80000000E+02  0.00000000E+00  0.00000000E+00
 2.90000000E+02  0.00000000E+00  0.00000000E+00
 3.00000000E+02  0.00000000E+00  0.00000000E+00
 3.10000000E+02  0.00000000E+00  0.00000000E+00
 3.20000000E+02  0.00000000E+00  0.00000000E+00
 3.30000000E+02  0.00000000E+00  0.00000000E+00
 3.40000000E+02  0.00000000E+00  0.00000000E+00
 3.50000000E+02  0.00000000E+00  0.00000000E+00
 3.60000000E+02  0.00000000E+00  0.00000000E+00
 3.70000000E+02  0.00000000E+00  0.00000000E+00
 3.80000000E+02  0.00000000E+00  0.00000000E+00
 3.90000000E+02  0.00000000E+00  0.00000000E+00
 4.00000000E+02  0.00000000E+00  0.00000000E+00
 4.10000000E+02  0.00000000E+00  0.00000000E+00
 4.20000000E+02  0.00000000E+00  0.00000000E+00
 4.30000000E+02  0.00000000E+00  0.00000000E+00
 4.40000000E+02  0.00000000E+00  0.00000000E+00
 4.50000000E+02  0.00000000E+00  0.00000000E+00
 4.60000000E+02  0.00000000E+00  0.00000000E+00
 4.70000000E+02  0.00000000E+00  0.00000000E+00
 4.80000000E+02  0.00000000E+00  0.00000000E+00
 4.90000000E+02  0.00000000E+00  0.00000000E+00
 5.00000000E+02  0.00000000E+00  0.00000000E+00
 5.10000000E+02  0.00000000E+00  0.00000000E+00
 5.20000000E+02  0.00000000E+00  0.00000000E+00
 5.30000000E+02  0.00000000E+00  0.00000000E+00
 5.40000000E+02  0.00000000E+00  0.00000000E+00
 5.50000000E+02  0.00000000E+00  0.00000000E+00
 5.60000000E+02  0.00000000E+00  0.00000000E+00
 5.70000000E+02  0.00000000E+00  0.00000000E+00
 5.80000000E+02  0.00000000E+00  0.00000000E+00
 5.90000000E+02  0.00000000E+00  0.00000000E+00
 6.00000000E+02  0.00000000E+00  0.00000000E+00
 6.10000000E+02  0.00000000E+00  0.00000000E+00
 6.20000000E+02  0.00000000E+00  0.00000000E+00
 6.30000000E+02  0.00000000E+00  0.00000000E+00
 6.40000000E+02  0.00000000E+00  0.00000000E+00
 6.50000000E+02  0.00000000E+00  0.00000000E+00
 6.60000000E+02  0.00000000E+00  0.00000000E+00
 6.70000000E+02  0.00000000E+00  0.00000000E+00
 6.80000000E+02  0.00000000E+00  0.00000000E+00
 6.90000000E+02  0.00000000E+00  0.00000000E+00
 7.00000000E+02  0.00000000E+00  0.00000000E+00
 7.10000000E+02  0.00000000E+00  0.00000000E+00
 7.20000000E+02  0.00000000E+00  0.00000000E+00
 7.30000000E+02  0.00000000E+00  0.00000000E+00
 7.40000000E+02  0.00000000E+00  0.00000000E+00
 7.50000000E+02  0.00000000E+00  0.00000000E+00
 7.60000000E+02  0.00000000E+00  0.00000000E+00
 7.70000000E+02  0.00000000E+00  0.00000000E+00
 7.80000000E+02  0.00000000E+00  0.00000000E+00
 7.90000000E+02  0.00000000E+00  0.00000000E+00
 8.00000000E+02  0.00000000E+00  0.00000000E+00
 8.10000000E+02  0.00000000E+00  0.00000000E+00
 8.20000000E+02  0.00000000E+00  0.00000000E+00
 8.30000000E+02  0.00000000E+00  0.00000000E+00
 8.40000000E+02  0.00000000E+00  0.00000000E+00
 8.50000000E+02  0.00000000E+00  0.00000000E+00
 8.60000000E+02  0.00000000E+00  0.00000000E+00
 8.70000000E+02  0.00000000E+00  0.00000000E+00
 8.80000000E+02  0.00000000E+00  0.00000000E+00
 8.90000000E+02  0.00000000E+00  0.00000000E+00
 9.00000000E+02  0.00000000E+00  0.00000000E+00
 9.10000000E+02  0.00000000E+00  0.00000000E+00
 9.20000000E+02  0.00000000E+00  0.00000000E+00
 9.30000000E+02  0.00000000E+00  0.00000000E+00
 9.40000000E+02  0.00000000E+00  0.00000000E+00
 9.50000000E+02  0.00000000E+00  0.00000000E+00
 9.60000000E+02  0.00000000E+00  0.00000000E+00
 9.70000000E+02  0.00000000E+00  0.00000000E+00
 9.80000000E+02  0.00000000E+00  0.00000000E+00
 9.90000000E+02  0.00000000E+00  0.00000000E+00
 1.00000000E+03  0.00000000E+00  0.00000000E+00
 0.00000000E+00  1.00000000E+01  0.00000000E+00
 1.00000000E+01  1.00000000E+01  0.00000000E+00
 2.00000000E+01  1.00000000E+01  0.00000000E+00
 3.00000000E+01  1.00000000E+01  0.00000000E+00
 4.00000000E+01  1.00000000E+01  0.00000000E+00
 5.00000000E+01  1.00000000E+01  0.00000000E+00
 6.00000000E+01  1.00000000E+01  0.00000000E+00
 7.00000000E+01  1.00000000E+01  0.00000000E+00
 8.00000000E+01  1.00000000E+01  0.00000000E+00
 9.00000000E+01  1.00000000E+01  0.00000000E+00
 1.00000000E+02  1.00000000E+01  0.00000000E+00
 1.10000000E+02  1.00000000E+01  0.00000000E+00
 1.20000000E+02  1.00000000E+01  0.00000000E+00
 1.30000000E+02  1.00000000E+01  0.00000000E+00
 1.40000000E+02  1.00000000E+01  0.00000000E+00
 1.50000000E+02  1.00000000E+01  0.00000000E+00
 1.60000000E+02  1.00000000E+01  0.00000000E+00
 1.70000000E+02  1.00000000E+01  0.00000000E+00
 1.80000000E+02  1.00000000E+01  0.00000000E+00
 1.90000000E+02  1.00000000E+01  0.00000000E+00
 2.00000000E+02  1.00000000E+01  0.00000000E+00
 2.10000000E+02  1.00000000E+01  0.00000000E+00
 2.20000000E+02  1.00000000E+01  0.00000000E+00
 2.30000000E+02  1.00000000E+01  0.00000000E+00
 2.40000000E+02  1.00000000E+01  0.00000000E+00
 2.50000000E+02  1.00000000E+01  0.00000000E+00
 2.60000000E+02  1.00000000E+01  0.00000000E+00
 2.70000000E+02  1.00000000E+01  0.00000000E+00
 2.80000000E+02  1.00000000E+01  0.00000000E+00
 2.90000000E+02  1.00000000E+01  0.00000000E+00
 3.00000000E+02  1.00000000E+01  0.00000000E+00
 3.10000000E+02  1.00000000E+01  0.00000000E+00
 3.20000000E+02  1.00000000E+01  0.00000000E+00
 3.30000000E+02  1.00000000E+01  0.00000000E+00
 3.40000000E+02  1.00000000E+01  0.00000000E+00
 3.50000000E+02  1.00000000E+01  0.00000000E+00
 3.60000000E+02  1.00000000E+01  0.00000000E+00
 3.70000000E+02  1.00000000E+01  0.00000000E+00
 3.80000000E+02  1.00000000E+01  0.00000000E+00
 3.90000000E+02  1.00000000E+01  0.00000000E+00
 4.00000000E+02  1.00000000E+01  0.00000000E+00
 4.10000000E+02  1.00000000E+01  0.00000000E+00
 4.20000000E+02  1.00000000E+01  0.00000000E+00
 4.30000000E+02  1.00000000E+01  0.00000000E+00
 4.40000000E+02  1.00000000E+01  0.00000000E+00
 4.50000000E+02  1.00000000E+01  0.00000000E+00
 4.60000000E+02  1.00000000E+01  0.00000000E+00
 4.70000000E+02  1.00000000E+01  0.00000000E+00
 4.80000000E+02  1.00000000E+01  0.00000000E+00
 4.90000000E+02  1.00000000E+01  0.00000000E+00
 5.00000000E+02  1.00000000E+01  0.00000000E+00
 5.10000000E+02  1.00000000E+01  0.00000000E+00
 5.20000000E+02  1.00000000E+01  0.00000000E+00
 5.30000000E+02  1.00000000E+01  0.00000000E+00
 5.40000000E+02  1.00000000E+01  0.00000000E+00
 5.50000000E+02  1.00000000E+01  0.00000000E+00
 5.60000000E+02  1.00000000E+01  0.00000000E+00
 5.70000000E+02  1.00000000E+01  0.00000000E+00
 5.80000000E+02  1.00000000E+01  0.00000000E+00
 5.90000000E+02  1.00000000E+01  0.00000000E+00
 6.00000000E+02  1.00000000E+01  0.00000000E+00
 6.10000000E+02  1.00000000E+01  0.00000000E+00
 6.20000000E+02  1.00000000E+01  0.00000000E+00
 6.30000000E+02  1.00000000E+01  0.00000000E+00
 6.40000000E+02  1.00000000E+01  0.00000000E+00
 6.50000000E+02  1.00000000E+01  0.00000000E+00
 6.60000000E+02  1.00000000E+01  0.00000000E+00
 6.70000000E+02  1.00000000E+01  0.00000000E+00
 6.80000000E+02  1.00000000E+01  0.00000000E+00
 6.90000000E+02  1.00000000E+01  0.00000000E+00
 7.00000000E+02  1.00000000E+01  0.00000000E+00
 7.10000000E+02  1.00000000E+01  0.00000000E+00
 7.20000000E+02  1.00000000E+01  0.00000000E+00
 7.30000000E+02  1.00000000E+01  0.00000000E+00
 7.40000000E+02  1.00000000E+01  0.00000000E+00
 7.50000000E+02  1.00000000E+01  0.00000000E+00
 7.60000000E+02  1.00000000E+01  0.00000000E+00
 7.70000000E+02  1.00000000E+01  0.00000000E+00
 7.80000000E+02  1.00000000E+01  0.00000000E+00
 7.90000000E+02  1.00000000E+01  0.00000000E+00
 8.00000000E+02  1.00000000E+01  0.00000000E+00
 8.10000000E+02  1.00000000E+01  0.00000000E+00
 8.20000000E+02  1.00000000E+01  0.00000000E+00
 8.30000000E+02  1.00000000E+01  0.00000000E+00
 8.40000000E+02  1.00000000E+01  0.00000000E+00
 8.50000000E+02  1.00000000E+01  0.00000000E+00
 8.60000000E+02  1.00000000E+01  0.00000000E+00
 8.70000000E+02  1.00000000E+01  0.00000000E+00
 8.80000000E+02  1.00000000E+01  0.00000000E+00
 8.90000000E+02  1.00000000E+01  0.00000000E+00
 9.00000000E+02  1.00000000E+01  0.00000000E+00
 9.10000000E+02  1.00000000E+01  0.00000000E+00
 9.20000000E+02  1.00000000E+01  0.00000000E+00
 9.30000000E+02  1.00000000E+01  0.00000000E+00
 9.40000000E+02  1.00000000E+01  0.00000000E+00
 9.50000000E+02  1.00000000E+01  0.00000000E+00
 9.60000000E+02  1.00000000E+01  0.00000000E+00
 9.70000000E+02  1.00000000E+01  0.00000000E+00
 9.80000000E+02  1.00000000E+01  0.00000000E+00
 9.90000000E+02  1.00000000E+01  0.00000000E+00
 1.00000000E+03  1.00000000E+01  0.00000000E+00
 0.00000000E+00  2.00000000E+01  0.00000000E+00
 1.00000000E+01  2.00000000E+01  0.00000000E+00
 2.00000000E+01  2.00000000E+01  0.00000000E+00
[...]
CELL_DATA                  1000
SCALARS         bathy           double 1       
LOOKUP_TABLE default           
 7.18660800E+00
 7.06785300E+00
 6.94978700E+00
 6.83250100E+00
 6.71609000E+00
 6.60065900E+00
 6.48631600E+00
 6.37317700E+00
 6.26136100E+00
 6.15099200E+00
 6.04219400E+00
 5.93509400E+00
 5.82981400E+00
 5.72647600E+00
 5.62519400E+00
 5.52607500E+00
 5.42921600E+00
 5.33470500E+00
 5.24261300E+00
 5.15299900E+00
 5.06590600E+00
 4.98136200E+00
 4.89937900E+00
 4.81995200E+00
 4.74306300E+00
 4.66868100E+00
 4.59676200E+00
 4.52725300E+00
 4.46009300E+00
 4.39521500E+00
 4.33254800E+00
 4.27202000E+00
 4.21355900E+00
 4.15709200E+00
 4.10255000E+00
 4.04986700E+00
 3.99898000E+00
 3.94982900E+00
 3.90235900E+00
 3.85651500E+00
 3.81224600E+00
 3.76950000E+00
 3.72822700E+00
 3.68837300E+00
 3.64988100E+00
 3.61269100E+00
 3.57673600E+00
 3.54194100E+00
 3.50822400E+00
 3.47549300E+00
 3.44364600E+00
 3.41257000E+00
 3.38214000E+00
 3.35221800E+00
 3.32265800E+00
 3.29329900E+00
 3.26397000E+00
 3.23449000E+00
 3.20466800E+00
 3.17430400E+00
 3.14319200E+00
 3.11112100E+00
 3.07787400E+00
 3.04323600E+00
 3.00698900E+00
 2.96892000E+00
 2.92881900E+00
 2.88648600E+00
 2.84172900E+00
 2.79436800E+00
 2.74424000E+00
 2.69119800E+00
 2.63511400E+00
 2.57588000E+00
 2.51341100E+00
 2.44764700E+00
 2.37855100E+00
 2.30611000E+00
 2.23033600E+00
 2.15126500E+00
 2.06895600E+00
 1.98348700E+00
 1.89495600E+00
 1.80348000E+00
 1.70918600E+00
 1.61221600E+00
 1.51271900E+00
 1.41085300E+00
 1.30677700E+00
 1.20065300E+00
 1.09264100E+00
 9.82898300E-01
 8.71579000E-01
 7.58829900E-01
 6.44791300E-01
 5.29595300E-01
 4.13365700E-01
 2.96217300E-01
 1.78256200E-01
 5.95791200E-02
 7.18660800E+00
 7.06785300E+00
 6.94978700E+00
 6.83250100E+00
 6.71609000E+00
 6.60065900E+00
 6.48631600E+00
 6.37317700E+00
 6.26136100E+00
 6.15099200E+00
 6.04219400E+00
 5.93509400E+00
 5.82981400E+00
 5.72647600E+00
 5.62519400E+00
 5.52607500E+00
 5.42921600E+00
 5.33470500E+00
 5.24261300E+00
 5.15299900E+00
 5.06590600E+00
 4.98136200E+00
 4.89937900E+00
 4.81995200E+00
 4.74306300E+00
 4.66868100E+00
 4.59676200E+00
 4.52725300E+00
 4.46009300E+00
 4.39521500E+00
 4.33254800E+00
 4.27202000E+00
 4.21355900E+00
 4.15709200E+00
 4.10255000E+00
 4.04986700E+00
 3.99898000E+00
 3.94982900E+00
 3.90235900E+00
 3.85651500E+00
 3.81224600E+00
 3.76950000E+00
 3.72822700E+00
 3.68837300E+00
 3.64988100E+00
 3.61269100E+00
 3.57673600E+00
 3.54194100E+00
 3.50822400E+00
 3.47549300E+00
 3.44364600E+00
 3.41257000E+00
 3.38214000E+00
 3.35221800E+00
 3.32265800E+00
 3.29329900E+00
 3.26397000E+00
 3.23449000E+00
 3.20466800E+00
 3.17430400E+00
 3.14319200E+00
 3.11112100E+00
 3.07787400E+00
 3.04323600E+00
 3.00698900E+00
 2.96892000E+00
 2.92881900E+00
 2.88648600E+00
 2.84172900E+00
 2.79436800E+00
 2.74424000E+00
 2.69119800E+00
 2.63511400E+00
 2.57588000E+00
 2.51341100E+00
 2.44764700E+00
 2.37855100E+00
 2.30611000E+00
 2.23033600E+00
 2.15126500E+00
 2.06895600E+00
 1.98348700E+00
 1.89495600E+00
 1.80348000E+00
 1.70918600E+00
 1.61221600E+00
 1.51271900E+00
 1.41085300E+00
 1.30677700E+00
 1.20065300E+00
 1.09264100E+00
 9.82898300E-01
 8.71579000E-01
 7.58829900E-01
 6.44791300E-01
 5.29595300E-01
 4.13365700E-01
 2.96217300E-01
 1.78256200E-01
 5.95791200E-02
 7.18660800E+00
 7.06785300E+00
 6.94978700E+00
 6.83250100E+00
 6.71609000E+00
 6.60065900E+00
 6.48631600E+00
 6.37317700E+00
 6.26136100E+00
 6.15099200E+00
 6.04219400E+00
 5.93509400E+00
 5.82981400E+00
 5.72647600E+00
 5.62519400E+00
 5.52607500E+00
 5.42921600E+00
 5.33470500E+00
 5.24261300E+00
 5.15299900E+00
 5.06590600E+00
 4.98136200E+00
 4.89937900E+00
 4.81995200E+00
 4.74306300E+00
 4.66868100E+00
 4.59676200E+00
 4.52725300E+00
 4.46009300E+00
 4.39521500E+00
 4.33254800E+00
 4.27202000E+00
 4.21355900E+00
 4.15709200E+00
 4.10255000E+00
 4.04986700E+00
 3.99898000E+00
 3.94982900E+00
 3.90235900E+00
 3.85651500E+00
 3.81224600E+00
 3.76950000E+00
 3.72822700E+00
 3.68837300E+00
 3.64988100E+00
 3.61269100E+00
 3.57673600E+00
 3.54194100E+00
 3.50822400E+00
 3.47549300E+00
 3.44364600E+00
 3.41257000E+00
 3.38214000E+00
 3.35221800E+00
 3.32265800E+00
 3.29329900E+00
 3.26397000E+00
 3.23449000E+00
 3.20466800E+00
 3.17430400E+00
 3.14319200E+00
 3.11112100E+00
 3.07787400E+00
 3.04323600E+00
 3.00698900E+00
 2.96892000E+00
 2.92881900E+00
 2.88648600E+00
 2.84172900E+00
 2.79436800E+00
 2.74424000E+00
 2.69119800E+00
 2.63511400E+00
 2.57588000E+00
 2.51341100E+00
 2.44764700E+00
 2.37855100E+00
 2.30611000E+00
 2.23033600E+00
 2.15126500E+00
 2.06895600E+00
 1.98348700E+00
 1.89495600E+00
 1.80348000E+00
 1.70918600E+00
 1.61221600E+00
 1.51271900E+00
 1.41085300E+00
 1.30677700E+00
 1.20065300E+00
 1.09264100E+00
 9.82898300E-01
 8.71579000E-01
 7.58829900E-01
 6.44791300E-01
 5.29595300E-01
 4.13365700E-01
 2.96217300E-01
 1.78256200E-01
 5.95791200E-02
 7.18660800E+00
 7.06785300E+00
 6.94978700E+00
 6.83250100E+00
 6.71609000E+00
 6.60065900E+00
 6.48631600E+00
 6.37317700E+00
 6.26136100E+00
 6.15099200E+00
 6.04219400E+00
 5.93509400E+00
 5.82981400E+00
 5.72647600E+00
 5.62519400E+00
 5.52607500E+00
 5.42921600E+00
 5.33470500E+00
 5.24261300E+00
 5.15299900E+00
 5.06590600E+00
 4.98136200E+00
 4.89937900E+00
 4.81995200E+00
 4.74306300E+00
 4.66868100E+00
 4.59676200E+00
 4.52725300E+00
 4.46009300E+00
 4.39521500E+00
 4.33254800E+00
 4.27202000E+00
 4.21355900E+00
 4.15709200E+00
 4.10255000E+00
 4.04986700E+00
 3.99898000E+00
 3.94982900E+00
 3.90235900E+00
 3.85651500E+00
 3.81224600E+00
 3.76950000E+00
 3.72822700E+00
 3.68837300E+00
 3.64988100E+00
 3.61269100E+00
 3.57673600E+00
 3.54194100E+00
 3.50822400E+00
 3.47549300E+00
 3.44364600E+00
 3.41257000E+00
 3.38214000E+00
 3.35221800E+00
 3.32265800E+00
 3.29329900E+00
 3.26397000E+00
 3.23449000E+00
 3.20466800E+00
 3.17430400E+00
 3.14319200E+00
 3.11112100E+00
 3.07787400E+00
 3.04323600E+00
 3.00698900E+00
 2.96892000E+00
 2.92881900E+00
 2.88648600E+00
 2.84172900E+00
 2.79436800E+00
 2.74424000E+00
 2.69119800E+00
 2.63511400E+00
 2.57588000E+00
 2.51341100E+00
 2.44764700E+00
 2.37855100E+00
 2.30611000E+00
 2.23033600E+00
 2.15126500E+00
 2.06895600E+00
 1.98348700E+00
 1.89495600E+00
 1.80348000E+00
 1.70918600E+00
 1.61221600E+00
 1.51271900E+00
 1.41085300E+00
 1.30677700E+00
 1.20065300E+00
 1.09264100E+00
 9.82898300E-01
 8.71579000E-01
 7.58829900E-01
 6.44791300E-01
 5.29595300E-01
 4.13365700E-01
 2.96217300E-01
 1.78256200E-01
 5.95791200E-02
 7.18660800E+00
 7.06785300E+00
 6.94978700E+00
 6.83250100E+00
 6.71609000E+00
 6.60065900E+00
 6.48631600E+00
 6.37317700E+00
 6.26136100E+00
 6.15099200E+00
 6.04219400E+00
 5.93509400E+00
 5.82981400E+00
 5.72647600E+00
 5.62519400E+00
 5.52607500E+00
 5.42921600E+00
 5.33470500E+00
 5.24261300E+00
 5.15299900E+00
 5.06590600E+00
 4.98136200E+00
 4.89937900E+00
 4.81995200E+00
 4.74306300E+00
 4.66868100E+00
 4.59676200E+00
 4.52725300E+00
 4.46009300E+00
 4.39521500E+00
 4.33254800E+00
 4.27202000E+00
 4.21355900E+00
 4.15709200E+00
 4.10255000E+00
 4.04986700E+00
 3.99898000E+00
 3.94982900E+00
 3.90235900E+00
 3.85651500E+00
 3.81224600E+00
 3.76950000E+00
 3.72822700E+00
 3.68837300E+00
 3.64988100E+00
 3.61269100E+00
 3.57673600E+00
 3.54194100E+00
 3.50822400E+00
 3.47549300E+00
 3.44364600E+00
 3.41257000E+00
 3.38214000E+00
 3.35221800E+00
 3.32265800E+00
 3.29329900E+00
 3.26397000E+00
 3.23449000E+00
 3.20466800E+00
 3.17430400E+00
 3.14319200E+00
 3.11112100E+00
 3.07787400E+00
 3.04323600E+00
 3.00698900E+00
 2.96892000E+00
 2.92881900E+00
 2.88648600E+00
 2.84172900E+00
 2.79436800E+00
 2.74424000E+00
 2.69119800E+00
 2.63511400E+00
 2.57588000E+00
 2.51341100E+00
 2.44764700E+00
 2.37855100E+00
 2.30611000E+00
 2.23033600E+00
 2.15126500E+00
 2.06895600E+00
 1.98348700E+00
 1.89495600E+00
 1.80348000E+00
 1.70918600E+00
 1.61221600E+00
 1.51271900E+00
 1.41085300E+00
 1.30677700E+00
 1.20065300E+00
 1.09264100E+00
 9.82898300E-01
 8.71579000E-01
 7.58829900E-01
 6.44791300E-01
 5.29595300E-01
 4.13365700E-01
 2.96217300E-01
 1.78256200E-01
 5.95791200E-02
 7.18660800E+00
 7.06785300E+00
 6.94978700E+00
 6.83250100E+00
 6.71609000E+00
 6.60065900E+00
 6.48631600E+00
 6.37317700E+00
 6.26136100E+00
 6.15099200E+00
 6.04219400E+00
 5.93509400E+00
 5.82981400E+00
 5.72647600E+00
 5.62519400E+00
 5.52607500E+00
 5.42921600E+00
 5.33470500E+00
 5.24261300E+00
 5.15299900E+00
 5.06590600E+00
 4.98136200E+00
 4.89937900E+00
 4.81995200E+00
 4.74306300E+00
 4.66868100E+00
 4.59676200E+00
 4.52725300E+00
 4.46009300E+00
 4.39521500E+00
 4.33254800E+00
 4.27202000E+00
 4.21355900E+00
 4.15709200E+00
 4.10255000E+00
 4.04986700E+00
 3.99898000E+00
 3.94982900E+00
 3.90235900E+00
 3.85651500E+00
 3.81224600E+00
 3.76950000E+00
 3.72822700E+00
 3.68837300E+00
 3.64988100E+00
 3.61269100E+00
 3.57673600E+00
 3.54194100E+00
 3.50822400E+00
 3.47549300E+00
 3.44364600E+00
 3.41257000E+00
 3.38214000E+00
 3.35221800E+00
 3.32265800E+00
 3.29329900E+00
 3.26397000E+00
 3.23449000E+00
 3.20466800E+00
 3.17430400E+00
 3.14319200E+00
 3.11112100E+00
 3.07787400E+00
 3.04323600E+00
 3.00698900E+00
 2.96892000E+00
 2.92881900E+00
 2.88648600E+00
 2.84172900E+00
 2.79436800E+00
 2.74424000E+00
 2.69119800E+00
 2.63511400E+00
 2.57588000E+00
 2.51341100E+00
 2.44764700E+00
 2.37855100E+00
 2.30611000E+00
 2.23033600E+00
 2.15126500E+00
 2.06895600E+00
 1.98348700E+00
 1.89495600E+00
 1.80348000E+00
 1.70918600E+00
 1.61221600E+00
 1.51271900E+00
 1.41085300E+00
 1.30677700E+00
 1.20065300E+00
 1.09264100E+00
 9.82898300E-01
 8.71579000E-01
 7.58829900E-01
 6.44791300E-01
 5.29595300E-01
 4.13365700E-01
 2.96217300E-01
 1.78256200E-01
 5.95791200E-02
 7.18660800E+00
 7.06785300E+00
 6.94978700E+00
 6.83250100E+00
 6.71609000E+00
 6.60065900E+00
 6.48631600E+00
 6.37317700E+00
 6.26136100E+00
 6.15099200E+00
 6.04219400E+00
 5.93509400E+00
 5.82981400E+00
 5.72647600E+00
 5.62519400E+00
 5.52607500E+00
 5.42921600E+00
 5.33470500E+00
 5.24261300E+00
 5.15299900E+00
 5.06590600E+00
 4.98136200E+00
 4.89937900E+00
 4.81995200E+00
 4.74306300E+00
 4.66868100E+00
 4.59676200E+00
 4.52725300E+00
 4.46009300E+00
 4.39521500E+00
 4.33254800E+00
 4.27202000E+00
 4.21355900E+00
 4.15709200E+00
 4.10255000E+00
 4.04986700E+00
 3.99898000E+00
 3.94982900E+00
 3.90235900E+00
 3.85651500E+00
 3.81224600E+00
 3.76950000E+00
 3.72822700E+00
 3.68837300E+00
 3.64988100E+00
 3.61269100E+00
 3.57673600E+00
 3.54194100E+00
 3.50822400E+00
 3.47549300E+00
 3.44364600E+00
 3.41257000E+00
 3.38214000E+00
 3.35221800E+00
 3.32265800E+00
 3.29329900E+00
 3.26397000E+00
 3.23449000E+00
 3.20466800E+00
 3.17430400E+00
 3.14319200E+00
 3.11112100E+00
 3.07787400E+00
 3.04323600E+00
 3.00698900E+00
 2.96892000E+00
 2.92881900E+00
 2.88648600E+00
 2.84172900E+00
 2.79436800E+00
 2.74424000E+00
 2.69119800E+00
 2.63511400E+00
 2.57588000E+00
 2.51341100E+00
 2.44764700E+00
 2.37855100E+00
 2.30611000E+00
 2.23033600E+00
 2.15126500E+00
 2.06895600E+00
 1.98348700E+00
 1.89495600E+00
 1.80348000E+00
 1.70918600E+00
 1.61221600E+00
 1.51271900E+00
 1.41085300E+00
 1.30677700E+00
 1.20065300E+00
 1.09264100E+00
 9.82898300E-01
 8.71579000E-01
 7.58829900E-01
 6.44791300E-01
 5.29595300E-01
 4.13365700E-01
 2.96217300E-01
 1.78256200E-01
 5.95791200E-02
 7.18660800E+00
 7.06785300E+00
 6.94978700E+00
 6.83250100E+00
 6.71609000E+00
 6.60065900E+00
 6.48631600E+00
 6.37317700E+00
 6.26136100E+00
 6.15099200E+00
 6.04219400E+00
 5.93509400E+00
 5.82981400E+00
 5.72647600E+00
 5.62519400E+00
 5.52607500E+00
 5.42921600E+00
 5.33470500E+00
 5.24261300E+00
 5.15299900E+00
 5.06590600E+00
 4.98136200E+00
 4.89937900E+00
 4.81995200E+00
 4.74306300E+00
 4.66868100E+00
 4.59676200E+00
 4.52725300E+00
 4.46009300E+00
 4.39521500E+00
 4.33254800E+00
 4.27202000E+00
 4.21355900E+00
 4.15709200E+00
 4.10255000E+00
 4.04986700E+00
 3.99898000E+00
 3.94982900E+00
 3.90235900E+00
 3.85651500E+00
 3.81224600E+00
 3.76950000E+00
 3.72822700E+00
 3.68837300E+00
 3.64988100E+00
 3.61269100E+00
 3.57673600E+00
 3.54194100E+00
 3.50822400E+00
 3.47549300E+00
 3.44364600E+00
 3.41257000E+00
 3.38214000E+00
 3.35221800E+00
 3.32265800E+00
 3.29329900E+00
 3.26397000E+00
 3.23449000E+00
 3.20466800E+00
 3.17430400E+00
 3.14319200E+00
 3.11112100E+00
 3.07787400E+00
 3.04323600E+00
 3.00698900E+00
 2.96892000E+00
 2.92881900E+00
 2.88648600E+00
 2.84172900E+00
 2.79436800E+00
 2.74424000E+00
 2.69119800E+00
 2.63511400E+00
 2.57588000E+00
 2.51341100E+00
 2.44764700E+00
 2.37855100E+00
 2.30611000E+00
 2.23033600E+00
 2.15126500E+00
 2.06895600E+00
 1.98348700E+00
 1.89495600E+00
 1.80348000E+00
 1.70918600E+00
 1.61221600E+00
 1.51271900E+00
 1.41085300E+00
 1.30677700E+00
 1.20065300E+00
 1.09264100E+00
 9.82898300E-01
 8.71579000E-01
 7.58829900E-01
 6.44791300E-01
 5.29595300E-01
 4.13365700E-01
 2.96217300E-01
 1.78256200E-01
 5.95791200E-02
 7.18660800E+00
 7.06785300E+00
 6.94978700E+00
 6.83250100E+00
 6.71609000E+00
 6.60065900E+00
 6.48631600E+00
 6.37317700E+00
 6.26136100E+00
 6.15099200E+00
 6.04219400E+00
 5.93509400E+00
 5.82981400E+00
 5.72647600E+00
 5.62519400E+00
 5.52607500E+00
 5.42921600E+00
 5.33470500E+00
 5.24261300E+00
 5.15299900E+00
 5.06590600E+00
 4.98136200E+00
 4.89937900E+00
 4.81995200E+00
 4.74306300E+00
 4.66868100E+00
 4.59676200E+00
 4.52725300E+00
 4.46009300E+00
 4.39521500E+00
 4.33254800E+00
 4.27202000E+00
 4.21355900E+00
 4.15709200E+00
 4.10255000E+00
 4.04986700E+00
 3.99898000E+00
 3.94982900E+00
 3.90235900E+00
 3.85651500E+00
 3.81224600E+00
 3.76950000E+00
 3.72822700E+00
 3.68837300E+00
 3.64988100E+00
 3.61269100E+00
 3.57673600E+00
 3.54194100E+00
 3.50822400E+00
 3.47549300E+00
 3.44364600E+00
 3.41257000E+00
 3.38214000E+00
 3.35221800E+00
 3.32265800E+00
 3.29329900E+00
 3.26397000E+00
 3.23449000E+00
 3.20466800E+00
 3.17430400E+00
 3.14319200E+00
 3.11112100E+00
 3.07787400E+00
 3.04323600E+00
 3.00698900E+00
 2.96892000E+00
 2.92881900E+00
 2.88648600E+00
 2.84172900E+00
 2.79436800E+00
 2.74424000E+00
 2.69119800E+00
 2.63511400E+00
 2.57588000E+00
 2.51341100E+00
 2.44764700E+00
 2.37855100E+00
 2.30611000E+00
 2.23033600E+00
 2.15126500E+00
 2.06895600E+00
 1.98348700E+00
 1.89495600E+00
 1.80348000E+00
 1.70918600E+00
 1.61221600E+00
 1.51271900E+00
 1.41085300E+00
 1.30677700E+00
 1.20065300E+00
 1.09264100E+00
 9.82898300E-01
 8.71579000E-01
 7.58829900E-01
 6.44791300E-01
 5.29595300E-01
 4.13365700E-01
 2.96217300E-01
 1.78256200E-01
 5.95791200E-02
 7.18660800E+00
 7.06785300E+00
 6.94978700E+00
 6.83250100E+00
 6.71609000E+00
 6.60065900E+00
 6.48631600E+00
 6.37317700E+00
 6.26136100E+00
 6.15099200E+00
 6.04219400E+00
 5.93509400E+00
 5.82981400E+00
 5.72647600E+00
 5.62519400E+00
 5.52607500E+00
 5.42921600E+00
 5.33470500E+00
 5.24261300E+00
 5.15299900E+00
 5.06590600E+00
 4.98136200E+00
 4.89937900E+00
 4.81995200E+00
 4.74306300E+00
 4.66868100E+00
 4.59676200E+00
 4.52725300E+00
 4.46009300E+00
 4.39521500E+00
 4.33254800E+00
 4.27202000E+00
 4.21355900E+00
 4.15709200E+00
 4.10255000E+00
 4.04986700E+00
 3.99898000E+00
 3.94982900E+00
 3.90235900E+00
 3.85651500E+00
 3.81224600E+00
 3.76950000E+00
 3.72822700E+00
 3.68837300E+00
 3.64988100E+00
 3.61269100E+00
 3.57673600E+00
 3.54194100E+00
 3.50822400E+00
 3.47549300E+00
 3.44364600E+00
 3.41257000E+00
 3.38214000E+00
 3.35221800E+00
 3.32265800E+00
 3.29329900E+00
 3.26397000E+00
 3.23449000E+00
 3.20466800E+00
 3.17430400E+00
 3.14319200E+00
 3.11112100E+00
 3.07787400E+00
 3.04323600E+00
 3.00698900E+00
 2.96892000E+00
 2.92881900E+00
 2.88648600E+00
 2.84172900E+00
 2.79436800E+00
 2.74424000E+00
 2.69119800E+00
 2.63511400E+00
 2.57588000E+00
 2.51341100E+00
 2.44764700E+00
 2.37855100E+00
 2.30611000E+00
 2.23033600E+00
 2.15126500E+00
 2.06895600E+00
 1.98348700E+00
 1.89495600E+00
 1.80348000E+00
 1.70918600E+00
 1.61221600E+00
 1.51271900E+00
 1.41085300E+00
 1.30677700E+00
 1.20065300E+00
 1.09264100E+00
 9.82898300E-01
 8.71579000E-01
 7.58829900E-01
 6.44791300E-01
 5.29595300E-01
 4.13365700E-01
 2.96217300E-01
 1.78256200E-01
 5.95791200E-02
SCALARS         h               double 1       
LOOKUP_TABLE default           
 2.64236486E-01
 2.53126304E-01
 2.44487067E-01
 2.37150514E-01
 2.30816079E-01
 2.22310174E-01
 2.15285677E-01
 2.09187179E-01
 2.03244775E-01
 1.98429883E-01
 2.41626884E-01
 2.69415646E-01
 2.93981726E-01
 3.10595897E-01
 3.09721880E-01
 3.17180960E-01
 3.19670474E-01
 3.08064698E-01
 3.14211232E-01
 3.14991838E-01
 3.40000820E-01
 3.66292095E-01
 3.63716096E-01
 3.51711694E-01
 3.73186788E-01
 3.69678216E-01
 3.64472880E-01
 3.85931323E-01
 3.82603625E-01
 3.83975079E-01
 4.05003494E-01
 4.01965308E-01
 4.06081360E-01
 4.22890796E-01
 4.20481706E-01
 4.27063973E-01
 4.41081418E-01
 4.39180927E-01
 4.47439662E-01
 4.61288254E-01
 4.63391758E-01
 4.71034028E-01
 4.79317870E-01
 4.77778666E-01
 4.82649329E-01
 4.93052714E-01
 5.19736478E-01
 5.29818628E-01
 5.45490093E-01
 5.74350374E-01
 5.86674721E-01
 5.94316392E-01
 6.13298254E-01
 6.16287870E-01
 6.23789167E-01
 6.42797262E-01
 6.49152183E-01
 6.55361088E-01
 6.61394379E-01
 6.70659676E-01
 6.82359780E-01
 6.93993758E-01
 6.85422223E-01
 6.74548694E-01
 6.60323931E-01
 6.50698730E-01
 6.37819224E-01
 6.16832570E-01
 5.96532789E-01
 5.81929090E-01
 5.92383703E-01
 5.69461914E-01
 5.52368072E-01
 5.73482210E-01
 5.48206224E-01
 5.27349451E-01
 5.55680026E-01
 5.28110934E-01
 5.04398956E-01
 5.42082481E-01
 5.15688836E-01
 4.87212892E-01
 5.28811891E-01
 4.98768519E-01
 4.65377422E-01
 5.11823173E-01
 4.82585515E-01
 4.45897017E-01
 4.96992542E-01
 4.58474672E-01
 3.86448816E-01
 4.11085244E-01
 3.90813774E-01
 3.32583129E-01
 4.02006858E-01
 3.94607361E-01
 4.64226574E-01
 6.30383425E-01
 7.72741670E-01
 9.08816840E-01
 2.46942804E-01
 2.38333217E-01
 2.25710275E-01
 2.23200523E-01
 2.20250930E-01
 2.09483094E-01
 2.06946636E-01
 2.03472546E-01
 1.94566764E-01
 1.93550780E-01
 2.34564437E-01
 2.31646614E-01
 2.78885514E-01
 3.03620257E-01
 2.84395469E-01
 3.17204866E-01
 3.23412017E-01
 2.92164834E-01
 3.20443582E-01
 3.21819159E-01
 3.11357737E-01
 3.78138133E-01
 3.73960007E-01
 3.29864962E-01
 3.90343426E-01
 3.76617280E-01
 3.44399095E-01
 4.02335888E-01
 3.86571212E-01
 3.67179218E-01
 4.19508197E-01
 4.03937684E-01
 3.92418422E-01
 4.35286953E-01
 4.20971083E-01
 4.15543356E-01
 4.51592244E-01
 4.38721825E-01
 4.37567721E-01
 4.69454727E-01
 4.62843846E-01
 4.63912235E-01
 4.87798736E-01
 4.79419578E-01
 4.83143437E-01
 5.08180547E-01
 5.15968732E-01
 5.28579535E-01
 5.54393221E-01
 5.70947696E-01
 5.87264848E-01
 6.04036461E-01
 6.09059916E-01
 6.15722717E-01
 6.30095438E-01
 6.35669573E-01
 6.43444772E-01
 6.57423029E-01
 6.62811366E-01
 6.76103478E-01
 6.90344538E-01
 6.81998958E-01
 6.75795283E-01
 6.75854812E-01
 6.55066228E-01
 6.44380516E-01
 6.45250151E-01
 6.17620823E-01
 6.00745969E-01
 6.04466322E-01
 5.81267722E-01
 5.65823862E-01
 5.75087444E-01
 5.57062173E-01
 5.40949961E-01
 5.54362804E-01
 5.35511304E-01
 5.17444337E-01
 5.35468457E-01
 5.19397049E-01
 5.01978265E-01
 5.22847367E-01
 5.04025962E-01
 4.82981597E-01
 5.05173389E-01
 4.85696140E-01
 4.63961147E-01
 4.89011047E-01
 4.69044766E-01
 4.35258895E-01
 4.18766700E-01
 3.99169557E-01
 3.56553955E-01
 3.90134512E-01
 3.87081155E-01
 3.54517766E-01
 4.84055954E-01
 6.27560237E-01
 7.73783530E-01
 9.14172923E-01
 2.20718645E-01
 2.11232474E-01
 2.10604740E-01
 2.10262369E-01
 2.02411038E-01
 2.01427865E-01
 1.99958758E-01
 1.92614923E-01
 1.92044918E-01
 1.91079795E-01
 1.93071596E-01
 2.40657418E-01
 2.75586688E-01
 2.63846415E-01
 2.96748022E-01
 3.15502717E-01
 2.89335855E-01
 3.13863398E-01
 3.23471546E-01
 2.92315118E-01
 3.51729209E-01
 3.77942375E-01
 3.24452774E-01
 3.76751796E-01
 3.85783798E-01
 3.36348661E-01
 3.91770041E-01
 3.95003270E-01
 3.50532966E-01
 4.09433210E-01
 4.10912913E-01
 3.73278701E-01
 4.29755823E-01
 4.26189865E-01
 3.95046808E-01
 4.48635234E-01
 4.41943479E-01
 4.17035326E-01