# vtk DataFile Version 3.0     
DassFlow Output File           
ASCII          
DATASET UNSTRUCTURED_GRID      
POINTS                      1111 double        
 0.00000000E+00  0.00000000E+00  0.00000000E+00
 1.00000000E+01  0.00000000E+00  0.00000000E+00
 2.00000000E+01  0.00000000E+00  0.00000000E+00
 3.00000000E+01  0.00000000E+00  0.00000000E+00
 4.00000000E+01  0.00000000E+00  0.00000000E+00
 5.00000000E+01  0.00000000E+00  0.00000000E+00
 6.00000000E+01  0.00000000E+00  0.00000000E+00
 7.00000000E+01  0.00000000E+00  0.00000000E+00
 8.00000000E+01  0.00000000E+00  0.00000000E+00
 9.00000000E+01  0.00000000E+00  0.00000000E+00
 1.00000000E+02  0.00000000E+00  0.00000000E+00
 1.10000000E+02  0.00000000E+00  0.00000000E+00
 1.20000000E+02  0.00000000E+00  0.00000000E+00
 1.30000000E+02  0.00000000E+00  0.00000000E+00
 1.40000000E+02  0.00000000E+00  0.00000000E+00
 1.50000000E+02  0.00000000E+00  0.00000000E+00
 1.60000000E+02  0.00000000E+00  0.00000000E+00
 1.70000000E+02  0.00000000E+00  0.00000000E+00
 1.80000000E+02  0.00000000E+00  0.00000000E+00
 1.90000000E+02  0.00000000E+00  0.00000000E+00
 2.00000000E+02  0.00000000E+00  0.00000000E+00
 2.10000000E+02  0.00000000E+00  0.00000000E+00
 2.20000000E+02  0.00000000E+00  0.00000000E+00
 2.30000000E+02  0.00000000E+00  0.00000000E+00
 2.40000000E+02  0.00000000E+00  0.00000000E+00
 2.50000000E+02  0.00000000E+00  0.00000000E+00
 2.60000000E+02  0.00000000E+00  0.00000000E+00
 2.70000000E+02  0.00000000E+00  0.00000000E+00
 2.80000000E+02  0.00000000E+00  0.00000000E+00
 2.90000000E+02  0.00000000E+00  0.00000000E+00
 3.00000000E+02  0.00000000E+00  0.00000000E+00
 3.10000000E+02  0.00000000E+00  0.00000000E+00
 3.20000000E+02  0.00000000E+00  0.00000000E+00
 3.30000000E+02  0.00000000E+00  0.00000000E+00
 3.40000000E+02  0.00000000E+00  0.00000000E+00
 3.50000000E+02  0.00000000E+00  0.00000000E+00
 3.60000000E+02  0.00000000E+00  0.00000000E+00
 3.70000000E+02  0.00000000E+00  0.00000000E+00
 3.80000000E+02  0.00000000E+00  0.00000000E+00
 3.90000000E+02  0.00000000E+00  0.00000000E+00
 4.00000000E+02  0.00000000E+00  0.00000000E+00
 4.10000000E+02  0.00000000E+00  0.00000000E+00
 4.20000000E+02  0.00000000E+00  0.00000000E+00
 4.30000000E+02  0.00000000E+00  0.00000000E+00
 4.40000000E+02  0.00000000E+00  0.00000000E+00
 4.50000000E+02  0.00000000E+00  0.00000000E+00
 4.60000000E+02  0.00000000E+00  0.00000000E+00
 4.70000000E+02  0.00000000E+00  0.00000000E+00
 4.80000000E+02  0.00000000E+00  0.00000000E+00
 4.90000000E+02  0.00000000E+00  0.00000000E+00
 5.00000000E+02  0.00000000E+00  0.00000000E+00
 5.10000000E+02  0.00000000E+00  0.00000000E+00
 5.20000000E+02  0.00000000E+00  0.00000000E+00
 5.30000000E+02  0.00000000E+00  0.00000000E+00
 5.40000000E+02  0.00000000E+00  0.00000000E+00
 5.50000000E+02  0.00000000E+00  0.00000000E+00
 5.60000000E+02  0.00000000E+00  0.00000000E+00
 5.70000000E+02  0.00000000E+00  0.00000000E+00
 5.80000000E+02  0.00000000E+00  0.00000000E+00
 5.90000000E+02  0.00000000E+00  0.00000000E+00
 6.00000000E+02  0.00000000E+00  0.00000000E+00
 6.10000000E+02  0.00000000E+00  0.00000000E+00
 6.20000000E+02  0.00000000E+00  0.00000000E+00
 6.30000000E+02  0.00000000E+00  0.00000000E+00
 6.40000000E+02  0.00000000E+00  0.00000000E+00
 6.50000000E+02  0.00000000E+00  0.00000000E+00
 6.60000000E+02  0.00000000E+00  0.00000000E+00
 6.70000000E+02  0.00000000E+00  0.00000000E+00
 6.80000000E+02  0.00000000E+00  0.00000000E+00
 6.90000000E+02  0.00000000E+00  0.00000000E+00
 7.00000000E+02  0.00000000E+00  0.00000000E+00
 7.10000000E+02  0.00000000E+00  0.00000000E+00
 7.20000000E+02  0.00000000E+00  0.00000000E+00
 7.30000000E+02  0.00000000E+00  0.00000000E+00
 7.40000000E+02  0.00000000E+00  0.00000000E+00
 7.50000000E+02  0.00000000E+00  0.00000000E+00
 7.60000000E+02  0.00000000E+00  0.00000000E+00
 7.70000000E+02  0.00000000E+00  0.00000000E+00
 7.80000000E+02  0.00000000E+00  0.00000000E+00
 7.90000000E+02  0.00000000E+00  0.00000000E+00
 8.00000000E+02  0.00000000E+00  0.00000000E+00
 8.10000000E+02  0.00000000E+00  0.00000000E+00
 8.20000000E+02  0.00000000E+00  0.00000000E+00
 8.30000000E+02  0.00000000E+00  0.00000000E+00
 8.40000000E+02  0.00000000E+00  0.00000000E+00
 8.50000000E+02  0.00000000E+00  0.00000000E+00
 8.60000000E+02  0.00000000E+00  0.00000000E+00
 8.70000000E+02  0.00000000E+00  0.00000000E+00
 8.80000000E+02  0.00000000E+00  0.00000000E+00
 8.90000000E+02  0.00000000E+00  0.00000000E+00
 9.00000000E+02  0.00000000E+00  0.00000000E+00
 9.10000000E+02  0.00000000E+00  0.00000000E+00
 9.20000000E+02  0.00000000E+00  0.00000000E+00
 9.30000000E+02  0.00000000E+00  0.00000000E+00
 9.40000000E+02  0.00000000E+00  0.00000000E+00
 9.50000000E+02  0.00000000E+00  0.00000000E+00
 9.60000000E+02  0.00000000E+00  0.00000000E+00
 9.70000000E+02  0.00000000E+00  0.00000000E+00
 9.80000000E+02  0.00000000E+00  0.00000000E+00
 9.90000000E+02  0.00000000E+00  0.00000000E+00
 1.00000000E+03  0.00000000E+00  0.00000000E+00
 0.00000000E+00  1.00000000E+01  0.00000000E+00
 1.00000000E+01  1.00000000E+01  0.00000000E+00
 2.00000000E+01  1.00000000E+01  0.00000000E+00
 3.00000000E+01  1.00000000E+01  0.00000000E+00
 4.00000000E+01  1.00000000E+01  0.00000000E+00
 5.00000000E+01  1.00000000E+01  0.00000000E+00
 6.00000000E+01  1.00000000E+01  0.00000000E+00
 7.00000000E+01  1.00000000E+01  0.00000000E+00
 8.00000000E+01  1.00000000E+01  0.00000000E+00
 9.00000000E+01  1.00000000E+01  0.00000000E+00
 1.00000000E+02  1.00000000E+01  0.00000000E+00
 1.10000000E+02  1.00000000E+01  0.00000000E+00
 1.20000000E+02  1.00000000E+01  0.00000000E+00
 1.30000000E+02  1.00000000E+01  0.00000000E+00
 1.40000000E+02  1.00000000E+01  0.00000000E+00
 1.50000000E+02  1.00000000E+01  0.00000000E+00
 1.60000000E+02  1.00000000E+01  0.00000000E+00
 1.70000000E+02  1.00000000E+01  0.00000000E+00
 1.80000000E+02  1.00000000E+01  0.00000000E+00
 1.90000000E+02  1.00000000E+01  0.00000000E+00
 2.00000000E+02  1.00000000E+01  0.00000000E+00
 2.10000000E+02  1.00000000E+01  0.00000000E+00
 2.20000000E+02  1.00000000E+01  0.00000000E+00
 2.30000000E+02  1.00000000E+01  0.00000000E+00
 2.40000000E+02  1.00000000E+01  0.00000000E+00
 2.50000000E+02  1.00000000E+01  0.00000000E+00
 2.60000000E+02  1.00000000E+01  0.00000000E+00
 2.70000000E+02  1.00000000E+01  0.00000000E+00
 2.80000000E+02  1.00000000E+01  0.00000000E+00
 2.90000000E+02  1.00000000E+01  0.00000000E+00
 3.00000000E+02  1.00000000E+01  0.00000000E+00
 3.10000000E+02  1.00000000E+01  0.00000000E+00
 3.20000000E+02  1.00000000E+01  0.00000000E+00
 3.30000000E+02  1.00000000E+01  0.00000000E+00
 3.40000000E+02  1.00000000E+01  0.00000000E+00
 3.50000000E+02  1.00000000E+01  0.00000000E+00
 3.60000000E+02  1.00000000E+01  0.00000000E+00
 3.70000000E+02  1.00000000E+01  0.00000000E+00
 3.80000000E+02  1.00000000E+01  0.00000000E+00
 3.90000000E+02  1.00000000E+01  0.00000000E+00
 4.00000000E+02  1.00000000E+01  0.00000000E+00
 4.10000000E+02  1.00000000E+01  0.00000000E+00
 4.20000000E+02  1.00000000E+01  0.00000000E+00
 4.30000000E+02  1.00000000E+01  0.00000000E+00
 4.40000000E+02  1.00000000E+01  0.00000000E+00
 4.50000000E+02  1.00000000E+01  0.00000000E+00
 4.60000000E+02  1.00000000E+01  0.00000000E+00
 4.70000000E+02  1.00000000E+01  0.00000000E+00
 4.80000000E+02  1.00000000E+01  0.00000000E+00
 4.90000000E+02  1.00000000E+01  0.00000000E+00
 5.00000000E+02  1.00000000E+01  0.00000000E+00
 5.10000000E+02  1.00000000E+01  0.00000000E+00
 5.20000000E+02  1.00000000E+01  0.00000000E+00
 5.30000000E+02  1.00000000E+01  0.00000000E+00
 5.40000000E+02  1.00000000E+01  0.00000000E+00
 5.50000000E+02  1.00000000E+01  0.00000000E+00
 5.60000000E+02  1.00000000E+01  0.00000000E+00
 5.70000000E+02  1.00000000E+01  0.00000000E+00
 5.80000000E+02  1.00000000E+01  0.00000000E+00
 5.90000000E+02  1.00000000E+01  0.00000000E+00
 6.00000000E+02  1.00000000E+01  0.00000000E+00
 6.10000000E+02  1.00000000E+01  0.00000000E+00
 6.20000000E+02  1.00000000E+01  0.00000000E+00
 6.30000000E+02  1.00000000E+01  0.00000000E+00
 6.40000000E+02  1.00000000E+01  0.00000000E+00
 6.50000000E+02  1.00000000E+01  0.00000000E+00
 6.60000000E+02  1.00000000E+01  0.00000000E+00
 6.70000000E+02  1.00000000E+01  0.00000000E+00
 6.80000000E+02  1.00000000E+01  0.00000000E+00
 6.90000000E+02  1.00000000E+01  0.00000000E+00
 7.00000000E+02  1.00000000E+01  0.00000000E+00
 7.10000000E+02  1.00000000E+01  0.00000000E+00
 7.20000000E+02  1.00000000E+01  0.00000000E+00
 7.30000000E+02  1.00000000E+01  0.00000000E+00
 7.40000000E+02  1.00000000E+01  0.00000000E+00
 7.50000000E+02  1.00000000E+01  0.00000000E+00
 7.60000000E+02  1.00000000E+01  0.00000000E+00
 7.70000000E+02  1.00000000E+01  0.00000000E+00
 7.80000000E+02  1.00000000E+01  0.00000000E+00
 7.90000000E+02  1.00000000E+01  0.00000000E+00
 8.00000000E+02  1.00000000E+01  0.00000000E+00
 8.10000000E+02  1.00000000E+01  0.00000000E+00
 8.20000000E+02  1.00000000E+01  0.00000000E+00
 8.30000000E+02  1.00000000E+01  0.00000000E+00
 8.40000000E+02  1.00000000E+01  0.00000000E+00
 8.50000000E+02  1.00000000E+01  0.00000000E+00
 8.60000000E+02  1.00000000E+01  0.00000000E+00
 8.70000000E+02  1.00000000E+01  0.00000000E+00
 8.80000000E+02  1.00000000E+01  0.00000000E+00
 8.90000000E+02  1.00000000E+01  0.00000000E+00
 9.00000000E+02  1.00000000E+01  0.00000000E+00
 9.10000000E+02  1.00000000E+01  0.00000000E+00
 9.20000000E+02  1.00000000E+01  0.00000000E+00
 9.30000000E+02  1.00000000E+01  0.00000000E+00
 9.40000000E+02  1.00000000E+01  0.00000000E+00
 9.50000000E+02  1.00000000E+01  0.00000000E+00
 9.60000000E+02  1.00000000E+01  0.00000000E+00
 9.70000000E+02  1.00000000E+01  0.00000000E+00
 9.80000000E+02  1.00000000E+01  0.00000000E+00
 9.90000000E+02  1.00000000E+01  0.00000000E+00
 1.00000000E+03  1.00000000E+01  0.00000000E+00
 0.00000000E+00  2.00000000E+01  0.00000000E+00
 1.00000000E+01  2.00000000E+01  0.00000000E+00
 2.00000000E+01  2.00000000E+01  0.00000000E+00
[...]
CELL_DATA                  1000
SCALARS         bathy           double 1       
LOOKUP_TABLE default           
 7.18660800E+00
 7.06785300E+00
 6.94978700E+00
 6.83250100E+00
 6.71609000E+00
 6.60065900E+00
 6.48631600E+00
 6.37317700E+00
 6.26136100E+00
 6.15099200E+00
 6.04219400E+00
 5.93509400E+00
 5.82981400E+00
 5.72647600E+00
 5.62519400E+00
 5.52607500E+00
 5.42921600E+00
 5.33470500E+00
 5.24261300E+00
 5.15299900E+00
 5.06590600E+00
 4.98136200E+00
 4.89937900E+00
 4.81995200E+00
 4.74306300E+00
 4.66868100E+00
 4.59676200E+00
 4.52725300E+00
 4.46009300E+00
 4.39521500E+00
 4.33254800E+00
 4.27202000E+00
 4.21355900E+00
 4.15709200E+00
 4.10255000E+00
 4.04986700E+00
 3.99898000E+00
 3.94982900E+00
 3.90235900E+00
 3.85651500E+00
 3.81224600E+00
 3.76950000E+00
 3.72822700E+00
 3.68837300E+00
 3.64988100E+00
 3.61269100E+00
 3.57673600E+00
 3.54194100E+00
 3.50822400E+00
 3.47549300E+00
 3.44364600E+00
 3.41257000E+00
 3.38214000E+00
 3.35221800E+00
 3.32265800E+00
 3.29329900E+00
 3.26397000E+00
 3.23449000E+00
 3.20466800E+00
 3.17430400E+00
 3.14319200E+00
 3.11112100E+00
 3.07787400E+00
 3.04323600E+00
 3.00698900E+00
 2.96892000E+00
 2.92881900E+00
 2.88648600E+00
 2.84172900E+00
 2.79436800E+00
 2.74424000E+00
 2.69119800E+00
 2.63511400E+00
 2.57588000E+00
 2.51341100E+00
 2.44764700E+00
 2.37855100E+00
 2.30611000E+00
 2.23033600E+00
 2.15126500E+00
 2.06895600E+00
 1.98348700E+00
 1.89495600E+00
 1.80348000E+00
 1.70918600E+00
 1.61221600E+00
 1.51271900E+00
 1.41085300E+00
 1.30677700E+00
 1.20065300E+00
 1.09264100E+00
 9.82898300E-01
 8.71579000E-01
 7.58829900E-01
 6.44791300E-01
 5.29595300E-01
 4.13365700E-01
 2.96217300E-01
 1.78256200E-01
 5.95791200E-02
 7.18660800E+00
 7.06785300E+00
 6.94978700E+00
 6.83250100E+00
 6.71609000E+00
 6.60065900E+00
 6.48631600E+00
 6.37317700E+00
 6.26136100E+00
 6.15099200E+00
 6.04219400E+00
 5.93509400E+00
 5.82981400E+00
 5.72647600E+00
 5.62519400E+00
 5.52607500E+00
 5.42921600E+00
 5.33470500E+00
 5.24261300E+00
 5.15299900E+00
 5.06590600E+00
 4.98136200E+00
 4.89937900E+00
 4.81995200E+00
 4.74306300E+00
 4.66868100E+00
 4.59676200E+00
 4.52725300E+00
 4.46009300E+00
 4.39521500E+00
 4.33254800E+00
 4.27202000E+00
 4.21355900E+00
 4.15709200E+00
 4.10255000E+00
 4.04986700E+00
 3.99898000E+00
 3.94982900E+00
 3.90235900E+00
 3.85651500E+00
 3.81224600E+00
 3.76950000E+00
 3.72822700E+00
 3.68837300E+00
 3.64988100E+00
 3.61269100E+00
 3.57673600E+00
 3.54194100E+00
 3.50822400E+00
 3.47549300E+00
 3.44364600E+00
 3.41257000E+00
 3.38214000E+00
 3.35221800E+00
 3.32265800E+00
 3.29329900E+00
 3.26397000E+00
 3.23449000E+00
 3.20466800E+00
 3.17430400E+00
 3.14319200E+00
 3.11112100E+00
 3.07787400E+00
 3.04323600E+00
 3.00698900E+00
 2.96892000E+00
 2.92881900E+00
 2.88648600E+00
 2.84172900E+00
 2.79436800E+00
 2.74424000E+00
 2.69119800E+00
 2.63511400E+00
 2.57588000E+00
 2.51341100E+00
 2.44764700E+00
 2.37855100E+00
 2.30611000E+00
 2.23033600E+00
 2.15126500E+00
 2.06895600E+00
 1.98348700E+00
 1.89495600E+00
 1.80348000E+00
 1.70918600E+00
 1.61221600E+00
 1.51271900E+00
 1.41085300E+00
 1.30677700E+00
 1.20065300E+00
 1.09264100E+00
 9.82898300E-01
 8.71579000E-01
 7.58829900E-01
 6.44791300E-01
 5.29595300E-01
 4.13365700E-01
 2.96217300E-01
 1.78256200E-01
 5.95791200E-02
 7.18660800E+00
 7.06785300E+00
 6.94978700E+00
 6.83250100E+00
 6.71609000E+00
 6.60065900E+00
 6.48631600E+00
 6.37317700E+00
 6.26136100E+00
 6.15099200E+00
 6.04219400E+00
 5.93509400E+00
 5.82981400E+00
 5.72647600E+00
 5.62519400E+00
 5.52607500E+00
 5.42921600E+00
 5.33470500E+00
 5.24261300E+00
 5.15299900E+00
 5.06590600E+00
 4.98136200E+00
 4.89937900E+00
 4.81995200E+00
 4.74306300E+00
 4.66868100E+00
 4.59676200E+00
 4.52725300E+00
 4.46009300E+00
 4.39521500E+00
 4.33254800E+00
 4.27202000E+00
 4.21355900E+00
 4.15709200E+00
 4.10255000E+00
 4.04986700E+00
 3.99898000E+00
 3.94982900E+00
 3.90235900E+00
 3.85651500E+00
 3.81224600E+00
 3.76950000E+00
 3.72822700E+00
 3.68837300E+00
 3.64988100E+00
 3.61269100E+00
 3.57673600E+00
 3.54194100E+00
 3.50822400E+00
 3.47549300E+00
 3.44364600E+00
 3.41257000E+00
 3.38214000E+00
 3.35221800E+00
 3.32265800E+00
 3.29329900E+00
 3.26397000E+00
 3.23449000E+00
 3.20466800E+00
 3.17430400E+00
 3.14319200E+00
 3.11112100E+00
 3.07787400E+00
 3.04323600E+00
 3.00698900E+00
 2.96892000E+00
 2.92881900E+00
 2.88648600E+00
 2.84172900E+00
 2.79436800E+00
 2.74424000E+00
 2.69119800E+00
 2.63511400E+00
 2.57588000E+00
 2.51341100E+00
 2.44764700E+00
 2.37855100E+00
 2.30611000E+00
 2.23033600E+00
 2.15126500E+00
 2.06895600E+00
 1.98348700E+00
 1.89495600E+00
 1.80348000E+00
 1.70918600E+00
 1.61221600E+00
 1.51271900E+00
 1.41085300E+00
 1.30677700E+00
 1.20065300E+00
 1.09264100E+00
 9.82898300E-01
 8.71579000E-01
 7.58829900E-01
 6.44791300E-01
 5.29595300E-01
 4.13365700E-01
 2.96217300E-01
 1.78256200E-01
 5.95791200E-02
 7.18660800E+00
 7.06785300E+00
 6.94978700E+00
 6.83250100E+00
 6.71609000E+00
 6.60065900E+00
 6.48631600E+00
 6.37317700E+00
 6.26136100E+00
 6.15099200E+00
 6.04219400E+00
 5.93509400E+00
 5.82981400E+00
 5.72647600E+00
 5.62519400E+00
 5.52607500E+00
 5.42921600E+00
 5.33470500E+00
 5.24261300E+00
 5.15299900E+00
 5.06590600E+00
 4.98136200E+00
 4.89937900E+00
 4.81995200E+00
 4.74306300E+00
 4.66868100E+00
 4.59676200E+00
 4.52725300E+00
 4.46009300E+00
 4.39521500E+00
 4.33254800E+00
 4.27202000E+00
 4.21355900E+00
 4.15709200E+00
 4.10255000E+00
 4.04986700E+00
 3.99898000E+00
 3.94982900E+00
 3.90235900E+00
 3.85651500E+00
 3.81224600E+00
 3.76950000E+00
 3.72822700E+00
 3.68837300E+00
 3.64988100E+00
 3.61269100E+00
 3.57673600E+00
 3.54194100E+00
 3.50822400E+00
 3.47549300E+00
 3.44364600E+00
 3.41257000E+00
 3.38214000E+00
 3.35221800E+00
 3.32265800E+00
 3.29329900E+00
 3.26397000E+00
 3.23449000E+00
 3.20466800E+00
 3.17430400E+00
 3.14319200E+00
 3.11112100E+00
 3.07787400E+00
 3.04323600E+00
 3.00698900E+00
 2.96892000E+00
 2.92881900E+00
 2.88648600E+00
 2.84172900E+00
 2.79436800E+00
 2.74424000E+00
 2.69119800E+00
 2.63511400E+00
 2.57588000E+00
 2.51341100E+00
 2.44764700E+00
 2.37855100E+00
 2.30611000E+00
 2.23033600E+00
 2.15126500E+00
 2.06895600E+00
 1.98348700E+00
 1.89495600E+00
 1.80348000E+00
 1.70918600E+00
 1.61221600E+00
 1.51271900E+00
 1.41085300E+00
 1.30677700E+00
 1.20065300E+00
 1.09264100E+00
 9.82898300E-01
 8.71579000E-01
 7.58829900E-01
 6.44791300E-01
 5.29595300E-01
 4.13365700E-01
 2.96217300E-01
 1.78256200E-01
 5.95791200E-02
 7.18660800E+00
 7.06785300E+00
 6.94978700E+00
 6.83250100E+00
 6.71609000E+00
 6.60065900E+00
 6.48631600E+00
 6.37317700E+00
 6.26136100E+00
 6.15099200E+00
 6.04219400E+00
 5.93509400E+00
 5.82981400E+00
 5.72647600E+00
 5.62519400E+00
 5.52607500E+00
 5.42921600E+00
 5.33470500E+00
 5.24261300E+00
 5.15299900E+00
 5.06590600E+00
 4.98136200E+00
 4.89937900E+00
 4.81995200E+00
 4.74306300E+00
 4.66868100E+00
 4.59676200E+00
 4.52725300E+00
 4.46009300E+00
 4.39521500E+00
 4.33254800E+00
 4.27202000E+00
 4.21355900E+00
 4.15709200E+00
 4.10255000E+00
 4.04986700E+00
 3.99898000E+00
 3.94982900E+00
 3.90235900E+00
 3.85651500E+00
 3.81224600E+00
 3.76950000E+00
 3.72822700E+00
 3.68837300E+00
 3.64988100E+00
 3.61269100E+00
 3.57673600E+00
 3.54194100E+00
 3.50822400E+00
 3.47549300E+00
 3.44364600E+00
 3.41257000E+00
 3.38214000E+00
 3.35221800E+00
 3.32265800E+00
 3.29329900E+00
 3.26397000E+00
 3.23449000E+00
 3.20466800E+00
 3.17430400E+00
 3.14319200E+00
 3.11112100E+00
 3.07787400E+00
 3.04323600E+00
 3.00698900E+00
 2.96892000E+00
 2.92881900E+00
 2.88648600E+00
 2.84172900E+00
 2.79436800E+00
 2.74424000E+00
 2.69119800E+00
 2.63511400E+00
 2.57588000E+00
 2.51341100E+00
 2.44764700E+00
 2.37855100E+00
 2.30611000E+00
 2.23033600E+00
 2.15126500E+00
 2.06895600E+00
 1.98348700E+00
 1.89495600E+00
 1.80348000E+00
 1.70918600E+00
 1.61221600E+00
 1.51271900E+00
 1.41085300E+00
 1.30677700E+00
 1.20065300E+00
 1.09264100E+00
 9.82898300E-01
 8.71579000E-01
 7.58829900E-01
 6.44791300E-01
 5.29595300E-01
 4.13365700E-01
 2.96217300E-01
 1.78256200E-01
 5.95791200E-02
 7.18660800E+00
 7.06785300E+00
 6.94978700E+00
 6.83250100E+00
 6.71609000E+00
 6.60065900E+00
 6.48631600E+00
 6.37317700E+00
 6.26136100E+00
 6.15099200E+00
 6.04219400E+00
 5.93509400E+00
 5.82981400E+00
 5.72647600E+00
 5.62519400E+00
 5.52607500E+00
 5.42921600E+00
 5.33470500E+00
 5.24261300E+00
 5.15299900E+00
 5.06590600E+00
 4.98136200E+00
 4.89937900E+00
 4.81995200E+00
 4.74306300E+00
 4.66868100E+00
 4.59676200E+00
 4.52725300E+00
 4.46009300E+00
 4.39521500E+00
 4.33254800E+00
 4.27202000E+00
 4.21355900E+00
 4.15709200E+00
 4.10255000E+00
 4.04986700E+00
 3.99898000E+00
 3.94982900E+00
 3.90235900E+00
 3.85651500E+00
 3.81224600E+00
 3.76950000E+00
 3.72822700E+00
 3.68837300E+00
 3.64988100E+00
 3.61269100E+00
 3.57673600E+00
 3.54194100E+00
 3.50822400E+00
 3.47549300E+00
 3.44364600E+00
 3.41257000E+00
 3.38214000E+00
 3.35221800E+00
 3.32265800E+00
 3.29329900E+00
 3.26397000E+00
 3.23449000E+00
 3.20466800E+00
 3.17430400E+00
 3.14319200E+00
 3.11112100E+00
 3.07787400E+00
 3.04323600E+00
 3.00698900E+00
 2.96892000E+00
 2.92881900E+00
 2.88648600E+00
 2.84172900E+00
 2.79436800E+00
 2.74424000E+00
 2.69119800E+00
 2.63511400E+00
 2.57588000E+00
 2.51341100E+00
 2.44764700E+00
 2.37855100E+00
 2.30611000E+00
 2.23033600E+00
 2.15126500E+00
 2.06895600E+00
 1.98348700E+00
 1.89495600E+00
 1.80348000E+00
 1.70918600E+00
 1.61221600E+00
 1.51271900E+00
 1.41085300E+00
 1.30677700E+00
 1.20065300E+00
 1.09264100E+00
 9.82898300E-01
 8.71579000E-01
 7.58829900E-01
 6.44791300E-01
 5.29595300E-01
 4.13365700E-01
 2.96217300E-01
 1.78256200E-01
 5.95791200E-02
 7.18660800E+00
 7.06785300E+00
 6.94978700E+00
 6.83250100E+00
 6.71609000E+00
 6.60065900E+00
 6.48631600E+00
 6.37317700E+00
 6.26136100E+00
 6.15099200E+00
 6.04219400E+00
 5.93509400E+00
 5.82981400E+00
 5.72647600E+00
 5.62519400E+00
 5.52607500E+00
 5.42921600E+00
 5.33470500E+00
 5.24261300E+00
 5.15299900E+00
 5.06590600E+00
 4.98136200E+00
 4.89937900E+00
 4.81995200E+00
 4.74306300E+00
 4.66868100E+00
 4.59676200E+00
 4.52725300E+00
 4.46009300E+00
 4.39521500E+00
 4.33254800E+00
 4.27202000E+00
 4.21355900E+00
 4.15709200E+00
 4.10255000E+00
 4.04986700E+00
 3.99898000E+00
 3.94982900E+00
 3.90235900E+00
 3.85651500E+00
 3.81224600E+00
 3.76950000E+00
 3.72822700E+00
 3.68837300E+00
 3.64988100E+00
 3.61269100E+00
 3.57673600E+00
 3.54194100E+00
 3.50822400E+00
 3.47549300E+00
 3.44364600E+00
 3.41257000E+00
 3.38214000E+00
 3.35221800E+00
 3.32265800E+00
 3.29329900E+00
 3.26397000E+00
 3.23449000E+00
 3.20466800E+00
 3.17430400E+00
 3.14319200E+00
 3.11112100E+00
 3.07787400E+00
 3.04323600E+00
 3.00698900E+00
 2.96892000E+00
 2.92881900E+00
 2.88648600E+00
 2.84172900E+00
 2.79436800E+00
 2.74424000E+00
 2.69119800E+00
 2.63511400E+00
 2.57588000E+00
 2.51341100E+00
 2.44764700E+00
 2.37855100E+00
 2.30611000E+00
 2.23033600E+00
 2.15126500E+00
 2.06895600E+00
 1.98348700E+00
 1.89495600E+00
 1.80348000E+00
 1.70918600E+00
 1.61221600E+00
 1.51271900E+00
 1.41085300E+00
 1.30677700E+00
 1.20065300E+00
 1.09264100E+00
 9.82898300E-01
 8.71579000E-01
 7.58829900E-01
 6.44791300E-01
 5.29595300E-01
 4.13365700E-01
 2.96217300E-01
 1.78256200E-01
 5.95791200E-02
 7.18660800E+00
 7.06785300E+00
 6.94978700E+00
 6.83250100E+00
 6.71609000E+00
 6.60065900E+00
 6.48631600E+00
 6.37317700E+00
 6.26136100E+00
 6.15099200E+00
 6.04219400E+00
 5.93509400E+00
 5.82981400E+00
 5.72647600E+00
 5.62519400E+00
 5.52607500E+00
 5.42921600E+00
 5.33470500E+00
 5.24261300E+00
 5.15299900E+00
 5.06590600E+00
 4.98136200E+00
 4.89937900E+00
 4.81995200E+00
 4.74306300E+00
 4.66868100E+00
 4.59676200E+00
 4.52725300E+00
 4.46009300E+00
 4.39521500E+00
 4.33254800E+00
 4.27202000E+00
 4.21355900E+00
 4.15709200E+00
 4.10255000E+00
 4.04986700E+00
 3.99898000E+00
 3.94982900E+00
 3.90235900E+00
 3.85651500E+00
 3.81224600E+00
 3.76950000E+00
 3.72822700E+00
 3.68837300E+00
 3.64988100E+00
 3.61269100E+00
 3.57673600E+00
 3.54194100E+00
 3.50822400E+00
 3.47549300E+00
 3.44364600E+00
 3.41257000E+00
 3.38214000E+00
 3.35221800E+00
 3.32265800E+00
 3.29329900E+00
 3.26397000E+00
 3.23449000E+00
 3.20466800E+00
 3.17430400E+00
 3.14319200E+00
 3.11112100E+00
 3.07787400E+00
 3.04323600E+00
 3.00698900E+00
 2.96892000E+00
 2.92881900E+00
 2.88648600E+00
 2.84172900E+00
 2.79436800E+00
 2.74424000E+00
 2.69119800E+00
 2.63511400E+00
 2.57588000E+00
 2.51341100E+00
 2.44764700E+00
 2.37855100E+00
 2.30611000E+00
 2.23033600E+00
 2.15126500E+00
 2.06895600E+00
 1.98348700E+00
 1.89495600E+00
 1.80348000E+00
 1.70918600E+00
 1.61221600E+00
 1.51271900E+00
 1.41085300E+00
 1.30677700E+00
 1.20065300E+00
 1.09264100E+00
 9.82898300E-01
 8.71579000E-01
 7.58829900E-01
 6.44791300E-01
 5.29595300E-01
 4.13365700E-01
 2.96217300E-01
 1.78256200E-01
 5.95791200E-02
 7.18660800E+00
 7.06785300E+00
 6.94978700E+00
 6.83250100E+00
 6.71609000E+00
 6.60065900E+00
 6.48631600E+00
 6.37317700E+00
 6.26136100E+00
 6.15099200E+00
 6.04219400E+00
 5.93509400E+00
 5.82981400E+00
 5.72647600E+00
 5.62519400E+00
 5.52607500E+00
 5.42921600E+00
 5.33470500E+00
 5.24261300E+00
 5.15299900E+00
 5.06590600E+00
 4.98136200E+00
 4.89937900E+00
 4.81995200E+00
 4.74306300E+00
 4.66868100E+00
 4.59676200E+00
 4.52725300E+00
 4.46009300E+00
 4.39521500E+00
 4.33254800E+00
 4.27202000E+00
 4.21355900E+00
 4.15709200E+00
 4.10255000E+00
 4.04986700E+00
 3.99898000E+00
 3.94982900E+00
 3.90235900E+00
 3.85651500E+00
 3.81224600E+00
 3.76950000E+00
 3.72822700E+00
 3.68837300E+00
 3.64988100E+00
 3.61269100E+00
 3.57673600E+00
 3.54194100E+00
 3.50822400E+00
 3.47549300E+00
 3.44364600E+00
 3.41257000E+00
 3.38214000E+00
 3.35221800E+00
 3.32265800E+00
 3.29329900E+00
 3.26397000E+00
 3.23449000E+00
 3.20466800E+00
 3.17430400E+00
 3.14319200E+00
 3.11112100E+00
 3.07787400E+00
 3.04323600E+00
 3.00698900E+00
 2.96892000E+00
 2.92881900E+00
 2.88648600E+00
 2.84172900E+00
 2.79436800E+00
 2.74424000E+00
 2.69119800E+00
 2.63511400E+00
 2.57588000E+00
 2.51341100E+00
 2.44764700E+00
 2.37855100E+00
 2.30611000E+00
 2.23033600E+00
 2.15126500E+00
 2.06895600E+00
 1.98348700E+00
 1.89495600E+00
 1.80348000E+00
 1.70918600E+00
 1.61221600E+00
 1.51271900E+00
 1.41085300E+00
 1.30677700E+00
 1.20065300E+00
 1.09264100E+00
 9.82898300E-01
 8.71579000E-01
 7.58829900E-01
 6.44791300E-01
 5.29595300E-01
 4.13365700E-01
 2.96217300E-01
 1.78256200E-01
 5.95791200E-02
 7.18660800E+00
 7.06785300E+00
 6.94978700E+00
 6.83250100E+00
 6.71609000E+00
 6.60065900E+00
 6.48631600E+00
 6.37317700E+00
 6.26136100E+00
 6.15099200E+00
 6.04219400E+00
 5.93509400E+00
 5.82981400E+00
 5.72647600E+00
 5.62519400E+00
 5.52607500E+00
 5.42921600E+00
 5.33470500E+00
 5.24261300E+00
 5.15299900E+00
 5.06590600E+00
 4.98136200E+00
 4.89937900E+00
 4.81995200E+00
 4.74306300E+00
 4.66868100E+00
 4.59676200E+00
 4.52725300E+00
 4.46009300E+00
 4.39521500E+00
 4.33254800E+00
 4.27202000E+00
 4.21355900E+00
 4.15709200E+00
 4.10255000E+00
 4.04986700E+00
 3.99898000E+00
 3.94982900E+00
 3.90235900E+00
 3.85651500E+00
 3.81224600E+00
 3.76950000E+00
 3.72822700E+00
 3.68837300E+00
 3.64988100E+00
 3.61269100E+00
 3.57673600E+00
 3.54194100E+00
 3.50822400E+00
 3.47549300E+00
 3.44364600E+00
 3.41257000E+00
 3.38214000E+00
 3.35221800E+00
 3.32265800E+00
 3.29329900E+00
 3.26397000E+00
 3.23449000E+00
 3.20466800E+00
 3.17430400E+00
 3.14319200E+00
 3.11112100E+00
 3.07787400E+00
 3.04323600E+00
 3.00698900E+00
 2.96892000E+00
 2.92881900E+00
 2.88648600E+00
 2.84172900E+00
 2.79436800E+00
 2.74424000E+00
 2.69119800E+00
 2.63511400E+00
 2.57588000E+00
 2.51341100E+00
 2.44764700E+00
 2.37855100E+00
 2.30611000E+00
 2.23033600E+00
 2.15126500E+00
 2.06895600E+00
 1.98348700E+00
 1.89495600E+00
 1.80348000E+00
 1.70918600E+00
 1.61221600E+00
 1.51271900E+00
 1.41085300E+00
 1.30677700E+00
 1.20065300E+00
 1.09264100E+00
 9.82898300E-01
 8.71579000E-01
 7.58829900E-01
 6.44791300E-01
 5.29595300E-01
 4.13365700E-01
 2.96217300E-01
 1.78256200E-01
 5.95791200E-02
SCALARS         h               double 1       
LOOKUP_TABLE default           
 2.57397047E-01
 2.46165224E-01
 2.37466728E-01
 2.30119560E-01
 2.23802436E-01
 2.15308446E-01
 2.08331621E-01
 2.02296556E-01
 1.96415199E-01
 1.91675062E-01
 2.34823364E-01
 2.62156161E-01
 2.86155205E-01
 3.01862737E-01
 2.99876480E-01
 3.06938756E-01
 3.08875181E-01
 2.96890078E-01
 3.03270631E-01
 3.03855290E-01
 3.28021097E-01
 3.53482241E-01
 3.50664626E-01
 3.39031374E-01
 3.59797845E-01
 3.56480197E-01
 3.51864464E-01
 3.72508748E-01
 3.69282646E-01
 3.70776143E-01
 3.91010297E-01
 3.88031047E-01
 3.92025919E-01
 4.08267075E-01
 4.05863838E-01
 4.12202688E-01
 4.25804932E-01
 4.23881974E-01
 4.31854066E-01
 4.45353037E-01
 4.47354136E-01
 4.54759384E-01
 4.62893901E-01
 4.61228460E-01
 4.65721915E-01
 4.75747014E-01
 5.02157575E-01
 5.11805777E-01
 5.27088058E-01
 5.55715658E-01
 5.67709148E-01
 5.75144884E-01
 5.94015409E-01
 5.96792257E-01
 6.04154215E-01
 6.23097782E-01
 6.29322475E-01
 6.35473920E-01
 6.41430309E-01
 6.50633129E-01
 6.62368094E-01
 6.74118875E-01
 6.65771531E-01
 6.55235219E-01
 6.41366420E-01
 6.32063369E-01
 6.19606953E-01
 5.99098862E-01
 5.79223471E-01
 5.65069055E-01
 5.75734439E-01
 5.53189774E-01
 5.36479971E-01
 5.57663585E-01
 5.32774933E-01
 5.12332032E-01
 5.40627451E-01
 5.13476978E-01
 4.90193127E-01
 5.27679433E-01
 5.01674925E-01
 4.73711971E-01
 5.15056419E-01
 4.85486046E-01
 4.52684392E-01
 4.98789844E-01
 4.70013010E-01
 4.33968901E-01
 4.84649154E-01
 4.46839771E-01
 3.76470629E-01
 4.01060851E-01
 3.81187106E-01
 3.24248677E-01
 3.92615242E-01
 3.83933523E-01
 4.43581591E-01
 6.09583849E-01
 7.51708454E-01
 8.87722032E-01
 2.39887974E-01
 2.31209766E-01
 2.18547761E-01
 2.16102282E-01
 2.13187866E-01
 2.02411706E-01
 1.99953905E-01
 1.96534176E-01
 1.87650696E-01
 1.86733450E-01
 2.27653284E-01
 2.24654977E-01
 2.71638671E-01
 2.95387630E-01
 2.75197403E-01
 3.07584250E-01
 3.12831429E-01
 2.81097082E-01
 3.09598644E-01
 3.10579428E-01
 2.99910935E-01
 3.66008371E-01
 3.60514813E-01
 3.16944399E-01
 3.76641639E-01
 3.62905808E-01
 3.32243397E-01
 3.88620110E-01
 3.72911121E-01
 3.54312557E-01
 4.05190359E-01
 3.89798248E-01
 3.78540189E-01
 4.20401930E-01
 4.06248245E-01
 4.00784505E-01
 4.36130299E-01
 4.23382370E-01
 4.22055818E-01
 4.53413393E-01
 4.46763386E-01
 4.47648452E-01
 4.71307264E-01
 4.62830622E-01
 4.66181049E-01
 4.90874250E-01
 4.98293868E-01
 5.10500307E-01
 5.35980109E-01
 5.52154981E-01
 5.68157353E-01
 5.84783499E-01
 5.89637609E-01
 5.96143828E-01
 6.10440153E-01
 6.15891377E-01
 6.23564696E-01
 6.37501825E-01
 6.42780723E-01
 6.55996048E-01
 6.70280555E-01
 6.62155094E-01
 6.56223591E-01
 6.56559990E-01
 6.36142145E-01
 6.25806151E-01
 6.26988141E-01
 5.99831988E-01
 5.83369561E-01
 5.87354818E-01
 5.64605605E-01
 5.49543979E-01
 5.58983890E-01
 5.41282736E-01
 5.25548093E-01
 5.39095114E-01
 5.20561803E-01
 5.02890746E-01
 5.20977020E-01
 5.05138262E-01
 4.88087052E-01
 5.08985841E-01
 4.90448700E-01
 4.69846795E-01
 4.92042429E-01
 4.72873965E-01
 4.51581869E-01
 4.76580271E-01
 4.56960293E-01
 4.23914909E-01
 4.08388575E-01
 3.89214595E-01
 3.47508763E-01
 3.81102506E-01
 3.77450435E-01
 3.43108325E-01
 4.66027811E-01
 6.06762345E-01
 7.52315472E-01
 8.92701663E-01
 2.13336668E-01
 2.03800727E-01
 2.03212959E-01
 2.02911775E-01
 1.95053977E-01
 1.94133194E-01
 1.92717598E-01
 1.85388077E-01
 1.84900883E-01
 1.84007330E-01
 1.86127537E-01
 2.33632226E-01
 2.68148424E-01
 2.55832940E-01
 2.88181004E-01
 3.06029511E-01
 2.79017216E-01
 3.03378857E-01
 3.12529381E-01
 2.81000244E-01
 3.40292467E-01
 3.65413340E-01
 3.11131882E-01
 3.63898792E-01
 3.71330720E-01
 3.23675941E-01
 3.78704754E-01
 3.80847406E-01
 3.37710331E-01
 3.95835098E-01
 3.96395806E-01
 3.59795495E-01
 4.15363373E-01
 4.11176885E-01
 3.80828286E-01
 4.33512285E-01
 4.26385187E-01
 4.02089161E-01