# vtk DataFile Version 3.0     
DassFlow Output File           
ASCII          
DATASET UNSTRUCTURED_GRID      
POINTS                      1111 double        
 0.00000000E+00  0.00000000E+00  0.00000000E+00
 1.00000000E+01  0.00000000E+00  0.00000000E+00
 2.00000000E+01  0.00000000E+00  0.00000000E+00
 3.00000000E+01  0.00000000E+00  0.00000000E+00
 4.00000000E+01  0.00000000E+00  0.00000000E+00
 5.00000000E+01  0.00000000E+00  0.00000000E+00
 6.00000000E+01  0.00000000E+00  0.00000000E+00
 7.00000000E+01  0.00000000E+00  0.00000000E+00
 8.00000000E+01  0.00000000E+00  0.00000000E+00
 9.00000000E+01  0.00000000E+00  0.00000000E+00
 1.00000000E+02  0.00000000E+00  0.00000000E+00
 1.10000000E+02  0.00000000E+00  0.00000000E+00
 1.20000000E+02  0.00000000E+00  0.00000000E+00
 1.30000000E+02  0.00000000E+00  0.00000000E+00
 1.40000000E+02  0.00000000E+00  0.00000000E+00
 1.50000000E+02  0.00000000E+00  0.00000000E+00
 1.60000000E+02  0.00000000E+00  0.00000000E+00
 1.70000000E+02  0.00000000E+00  0.00000000E+00
 1.80000000E+02  0.00000000E+00  0.00000000E+00
 1.90000000E+02  0.00000000E+00  0.00000000E+00
 2.00000000E+02  0.00000000E+00  0.00000000E+00
 2.10000000E+02  0.00000000E+00  0.00000000E+00
 2.20000000E+02  0.00000000E+00  0.00000000E+00
 2.30000000E+02  0.00000000E+00  0.00000000E+00
 2.40000000E+02  0.00000000E+00  0.00000000E+00
 2.50000000E+02  0.00000000E+00  0.00000000E+00
 2.60000000E+02  0.00000000E+00  0.00000000E+00
 2.70000000E+02  0.00000000E+00  0.00000000E+00
 2.80000000E+02  0.00000000E+00  0.00000000E+00
 2.90000000E+02  0.00000000E+00  0.00000000E+00
 3.00000000E+02  0.00000000E+00  0.00000000E+00
 3.10000000E+02  0.00000000E+00  0.00000000E+00
 3.20000000E+02  0.00000000E+00  0.00000000E+00
 3.30000000E+02  0.00000000E+00  0.00000000E+00
 3.40000000E+02  0.00000000E+00  0.00000000E+00
 3.50000000E+02  0.00000000E+00  0.00000000E+00
 3.60000000E+02  0.00000000E+00  0.00000000E+00
 3.70000000E+02  0.00000000E+00  0.00000000E+00
 3.80000000E+02  0.00000000E+00  0.00000000E+00
 3.90000000E+02  0.00000000E+00  0.00000000E+00
 4.00000000E+02  0.00000000E+00  0.00000000E+00
 4.10000000E+02  0.00000000E+00  0.00000000E+00
 4.20000000E+02  0.00000000E+00  0.00000000E+00
 4.30000000E+02  0.00000000E+00  0.00000000E+00
 4.40000000E+02  0.00000000E+00  0.00000000E+00
 4.50000000E+02  0.00000000E+00  0.00000000E+00
 4.60000000E+02  0.00000000E+00  0.00000000E+00
 4.70000000E+02  0.00000000E+00  0.00000000E+00
 4.80000000E+02  0.00000000E+00  0.00000000E+00
 4.90000000E+02  0.00000000E+00  0.00000000E+00
 5.00000000E+02  0.00000000E+00  0.00000000E+00
 5.10000000E+02  0.00000000E+00  0.00000000E+00
 5.20000000E+02  0.00000000E+00  0.00000000E+00
 5.30000000E+02  0.00000000E+00  0.00000000E+00
 5.40000000E+02  0.00000000E+00  0.00000000E+00
 5.50000000E+02  0.00000000E+00  0.00000000E+00
 5.60000000E+02  0.00000000E+00  0.00000000E+00
 5.70000000E+02  0.00000000E+00  0.00000000E+00
 5.80000000E+02  0.00000000E+00  0.00000000E+00
 5.90000000E+02  0.00000000E+00  0.00000000E+00
 6.00000000E+02  0.00000000E+00  0.00000000E+00
 6.10000000E+02  0.00000000E+00  0.00000000E+00
 6.20000000E+02  0.00000000E+00  0.00000000E+00
 6.30000000E+02  0.00000000E+00  0.00000000E+00
 6.40000000E+02  0.00000000E+00  0.00000000E+00
 6.50000000E+02  0.00000000E+00  0.00000000E+00
 6.60000000E+02  0.00000000E+00  0.00000000E+00
 6.70000000E+02  0.00000000E+00  0.00000000E+00
 6.80000000E+02  0.00000000E+00  0.00000000E+00
 6.90000000E+02  0.00000000E+00  0.00000000E+00
 7.00000000E+02  0.00000000E+00  0.00000000E+00
 7.10000000E+02  0.00000000E+00  0.00000000E+00
 7.20000000E+02  0.00000000E+00  0.00000000E+00
 7.30000000E+02  0.00000000E+00  0.00000000E+00
 7.40000000E+02  0.00000000E+00  0.00000000E+00
 7.50000000E+02  0.00000000E+00  0.00000000E+00
 7.60000000E+02  0.00000000E+00  0.00000000E+00
 7.70000000E+02  0.00000000E+00  0.00000000E+00
 7.80000000E+02  0.00000000E+00  0.00000000E+00
 7.90000000E+02  0.00000000E+00  0.00000000E+00
 8.00000000E+02  0.00000000E+00  0.00000000E+00
 8.10000000E+02  0.00000000E+00  0.00000000E+00
 8.20000000E+02  0.00000000E+00  0.00000000E+00
 8.30000000E+02  0.00000000E+00  0.00000000E+00
 8.40000000E+02  0.00000000E+00  0.00000000E+00
 8.50000000E+02  0.00000000E+00  0.00000000E+00
 8.60000000E+02  0.00000000E+00  0.00000000E+00
 8.70000000E+02  0.00000000E+00  0.00000000E+00
 8.80000000E+02  0.00000000E+00  0.00000000E+00
 8.90000000E+02  0.00000000E+00  0.00000000E+00
 9.00000000E+02  0.00000000E+00  0.00000000E+00
 9.10000000E+02  0.00000000E+00  0.00000000E+00
 9.20000000E+02  0.00000000E+00  0.00000000E+00
 9.30000000E+02  0.00000000E+00  0.00000000E+00
 9.40000000E+02  0.00000000E+00  0.00000000E+00
 9.50000000E+02  0.00000000E+00  0.00000000E+00
 9.60000000E+02  0.00000000E+00  0.00000000E+00
 9.70000000E+02  0.00000000E+00  0.00000000E+00
 9.80000000E+02  0.00000000E+00  0.00000000E+00
 9.90000000E+02  0.00000000E+00  0.00000000E+00
 1.00000000E+03  0.00000000E+00  0.00000000E+00
 0.00000000E+00  1.00000000E+01  0.00000000E+00
 1.00000000E+01  1.00000000E+01  0.00000000E+00
 2.00000000E+01  1.00000000E+01  0.00000000E+00
 3.00000000E+01  1.00000000E+01  0.00000000E+00
 4.00000000E+01  1.00000000E+01  0.00000000E+00
 5.00000000E+01  1.00000000E+01  0.00000000E+00
 6.00000000E+01  1.00000000E+01  0.00000000E+00
 7.00000000E+01  1.00000000E+01  0.00000000E+00
 8.00000000E+01  1.00000000E+01  0.00000000E+00
 9.00000000E+01  1.00000000E+01  0.00000000E+00
 1.00000000E+02  1.00000000E+01  0.00000000E+00
 1.10000000E+02  1.00000000E+01  0.00000000E+00
 1.20000000E+02  1.00000000E+01  0.00000000E+00
 1.30000000E+02  1.00000000E+01  0.00000000E+00
 1.40000000E+02  1.00000000E+01  0.00000000E+00
 1.50000000E+02  1.00000000E+01  0.00000000E+00
 1.60000000E+02  1.00000000E+01  0.00000000E+00
 1.70000000E+02  1.00000000E+01  0.00000000E+00
 1.80000000E+02  1.00000000E+01  0.00000000E+00
 1.90000000E+02  1.00000000E+01  0.00000000E+00
 2.00000000E+02  1.00000000E+01  0.00000000E+00
 2.10000000E+02  1.00000000E+01  0.00000000E+00
 2.20000000E+02  1.00000000E+01  0.00000000E+00
 2.30000000E+02  1.00000000E+01  0.00000000E+00
 2.40000000E+02  1.00000000E+01  0.00000000E+00
 2.50000000E+02  1.00000000E+01  0.00000000E+00
 2.60000000E+02  1.00000000E+01  0.00000000E+00
 2.70000000E+02  1.00000000E+01  0.00000000E+00
 2.80000000E+02  1.00000000E+01  0.00000000E+00
 2.90000000E+02  1.00000000E+01  0.00000000E+00
 3.00000000E+02  1.00000000E+01  0.00000000E+00
 3.10000000E+02  1.00000000E+01  0.00000000E+00
 3.20000000E+02  1.00000000E+01  0.00000000E+00
 3.30000000E+02  1.00000000E+01  0.00000000E+00
 3.40000000E+02  1.00000000E+01  0.00000000E+00
 3.50000000E+02  1.00000000E+01  0.00000000E+00
 3.60000000E+02  1.00000000E+01  0.00000000E+00
 3.70000000E+02  1.00000000E+01  0.00000000E+00
 3.80000000E+02  1.00000000E+01  0.00000000E+00
 3.90000000E+02  1.00000000E+01  0.00000000E+00
 4.00000000E+02  1.00000000E+01  0.00000000E+00
 4.10000000E+02  1.00000000E+01  0.00000000E+00
 4.20000000E+02  1.00000000E+01  0.00000000E+00
 4.30000000E+02  1.00000000E+01  0.00000000E+00
 4.40000000E+02  1.00000000E+01  0.00000000E+00
 4.50000000E+02  1.00000000E+01  0.00000000E+00
 4.60000000E+02  1.00000000E+01  0.00000000E+00
 4.70000000E+02  1.00000000E+01  0.00000000E+00
 4.80000000E+02  1.00000000E+01  0.00000000E+00
 4.90000000E+02  1.00000000E+01  0.00000000E+00
 5.00000000E+02  1.00000000E+01  0.00000000E+00
 5.10000000E+02  1.00000000E+01  0.00000000E+00
 5.20000000E+02  1.00000000E+01  0.00000000E+00
 5.30000000E+02  1.00000000E+01  0.00000000E+00
 5.40000000E+02  1.00000000E+01  0.00000000E+00
 5.50000000E+02  1.00000000E+01  0.00000000E+00
 5.60000000E+02  1.00000000E+01  0.00000000E+00
 5.70000000E+02  1.00000000E+01  0.00000000E+00
 5.80000000E+02  1.00000000E+01  0.00000000E+00
 5.90000000E+02  1.00000000E+01  0.00000000E+00
 6.00000000E+02  1.00000000E+01  0.00000000E+00
 6.10000000E+02  1.00000000E+01  0.00000000E+00
 6.20000000E+02  1.00000000E+01  0.00000000E+00
 6.30000000E+02  1.00000000E+01  0.00000000E+00
 6.40000000E+02  1.00000000E+01  0.00000000E+00
 6.50000000E+02  1.00000000E+01  0.00000000E+00
 6.60000000E+02  1.00000000E+01  0.00000000E+00
 6.70000000E+02  1.00000000E+01  0.00000000E+00
 6.80000000E+02  1.00000000E+01  0.00000000E+00
 6.90000000E+02  1.00000000E+01  0.00000000E+00
 7.00000000E+02  1.00000000E+01  0.00000000E+00
 7.10000000E+02  1.00000000E+01  0.00000000E+00
 7.20000000E+02  1.00000000E+01  0.00000000E+00
 7.30000000E+02  1.00000000E+01  0.00000000E+00
 7.40000000E+02  1.00000000E+01  0.00000000E+00
 7.50000000E+02  1.00000000E+01  0.00000000E+00
 7.60000000E+02  1.00000000E+01  0.00000000E+00
 7.70000000E+02  1.00000000E+01  0.00000000E+00
 7.80000000E+02  1.00000000E+01  0.00000000E+00
 7.90000000E+02  1.00000000E+01  0.00000000E+00
 8.00000000E+02  1.00000000E+01  0.00000000E+00
 8.10000000E+02  1.00000000E+01  0.00000000E+00
 8.20000000E+02  1.00000000E+01  0.00000000E+00
 8.30000000E+02  1.00000000E+01  0.00000000E+00
 8.40000000E+02  1.00000000E+01  0.00000000E+00
 8.50000000E+02  1.00000000E+01  0.00000000E+00
 8.60000000E+02  1.00000000E+01  0.00000000E+00
 8.70000000E+02  1.00000000E+01  0.00000000E+00
 8.80000000E+02  1.00000000E+01  0.00000000E+00
 8.90000000E+02  1.00000000E+01  0.00000000E+00
 9.00000000E+02  1.00000000E+01  0.00000000E+00
 9.10000000E+02  1.00000000E+01  0.00000000E+00
 9.20000000E+02  1.00000000E+01  0.00000000E+00
 9.30000000E+02  1.00000000E+01  0.00000000E+00
 9.40000000E+02  1.00000000E+01  0.00000000E+00
 9.50000000E+02  1.00000000E+01  0.00000000E+00
 9.60000000E+02  1.00000000E+01  0.00000000E+00
 9.70000000E+02  1.00000000E+01  0.00000000E+00
 9.80000000E+02  1.00000000E+01  0.00000000E+00
 9.90000000E+02  1.00000000E+01  0.00000000E+00
 1.00000000E+03  1.00000000E+01  0.00000000E+00
 0.00000000E+00  2.00000000E+01  0.00000000E+00
 1.00000000E+01  2.00000000E+01  0.00000000E+00
 2.00000000E+01  2.00000000E+01  0.00000000E+00
[...]
CELL_DATA                  1000
SCALARS         bathy           double 1       
LOOKUP_TABLE default           
 7.18660800E+00
 7.06785300E+00
 6.94978700E+00
 6.83250100E+00
 6.71609000E+00
 6.60065900E+00
 6.48631600E+00
 6.37317700E+00
 6.26136100E+00
 6.15099200E+00
 6.04219400E+00
 5.93509400E+00
 5.82981400E+00
 5.72647600E+00
 5.62519400E+00
 5.52607500E+00
 5.42921600E+00
 5.33470500E+00
 5.24261300E+00
 5.15299900E+00
 5.06590600E+00
 4.98136200E+00
 4.89937900E+00
 4.81995200E+00
 4.74306300E+00
 4.66868100E+00
 4.59676200E+00
 4.52725300E+00
 4.46009300E+00
 4.39521500E+00
 4.33254800E+00
 4.27202000E+00
 4.21355900E+00
 4.15709200E+00
 4.10255000E+00
 4.04986700E+00
 3.99898000E+00
 3.94982900E+00
 3.90235900E+00
 3.85651500E+00
 3.81224600E+00
 3.76950000E+00
 3.72822700E+00
 3.68837300E+00
 3.64988100E+00
 3.61269100E+00
 3.57673600E+00
 3.54194100E+00
 3.50822400E+00
 3.47549300E+00
 3.44364600E+00
 3.41257000E+00
 3.38214000E+00
 3.35221800E+00
 3.32265800E+00
 3.29329900E+00
 3.26397000E+00
 3.23449000E+00
 3.20466800E+00
 3.17430400E+00
 3.14319200E+00
 3.11112100E+00
 3.07787400E+00
 3.04323600E+00
 3.00698900E+00
 2.96892000E+00
 2.92881900E+00
 2.88648600E+00
 2.84172900E+00
 2.79436800E+00
 2.74424000E+00
 2.69119800E+00
 2.63511400E+00
 2.57588000E+00
 2.51341100E+00
 2.44764700E+00
 2.37855100E+00
 2.30611000E+00
 2.23033600E+00
 2.15126500E+00
 2.06895600E+00
 1.98348700E+00
 1.89495600E+00
 1.80348000E+00
 1.70918600E+00
 1.61221600E+00
 1.51271900E+00
 1.41085300E+00
 1.30677700E+00
 1.20065300E+00
 1.09264100E+00
 9.82898300E-01
 8.71579000E-01
 7.58829900E-01
 6.44791300E-01
 5.29595300E-01
 4.13365700E-01
 2.96217300E-01
 1.78256200E-01
 5.95791200E-02
 7.18660800E+00
 7.06785300E+00
 6.94978700E+00
 6.83250100E+00
 6.71609000E+00
 6.60065900E+00
 6.48631600E+00
 6.37317700E+00
 6.26136100E+00
 6.15099200E+00
 6.04219400E+00
 5.93509400E+00
 5.82981400E+00
 5.72647600E+00
 5.62519400E+00
 5.52607500E+00
 5.42921600E+00
 5.33470500E+00
 5.24261300E+00
 5.15299900E+00
 5.06590600E+00
 4.98136200E+00
 4.89937900E+00
 4.81995200E+00
 4.74306300E+00
 4.66868100E+00
 4.59676200E+00
 4.52725300E+00
 4.46009300E+00
 4.39521500E+00
 4.33254800E+00
 4.27202000E+00
 4.21355900E+00
 4.15709200E+00
 4.10255000E+00
 4.04986700E+00
 3.99898000E+00
 3.94982900E+00
 3.90235900E+00
 3.85651500E+00
 3.81224600E+00
 3.76950000E+00
 3.72822700E+00
 3.68837300E+00
 3.64988100E+00
 3.61269100E+00
 3.57673600E+00
 3.54194100E+00
 3.50822400E+00
 3.47549300E+00
 3.44364600E+00
 3.41257000E+00
 3.38214000E+00
 3.35221800E+00
 3.32265800E+00
 3.29329900E+00
 3.26397000E+00
 3.23449000E+00
 3.20466800E+00
 3.17430400E+00
 3.14319200E+00
 3.11112100E+00
 3.07787400E+00
 3.04323600E+00
 3.00698900E+00
 2.96892000E+00
 2.92881900E+00
 2.88648600E+00
 2.84172900E+00
 2.79436800E+00
 2.74424000E+00
 2.69119800E+00
 2.63511400E+00
 2.57588000E+00
 2.51341100E+00
 2.44764700E+00
 2.37855100E+00
 2.30611000E+00
 2.23033600E+00
 2.15126500E+00
 2.06895600E+00
 1.98348700E+00
 1.89495600E+00
 1.80348000E+00
 1.70918600E+00
 1.61221600E+00
 1.51271900E+00
 1.41085300E+00
 1.30677700E+00
 1.20065300E+00
 1.09264100E+00
 9.82898300E-01
 8.71579000E-01
 7.58829900E-01
 6.44791300E-01
 5.29595300E-01
 4.13365700E-01
 2.96217300E-01
 1.78256200E-01
 5.95791200E-02
 7.18660800E+00
 7.06785300E+00
 6.94978700E+00
 6.83250100E+00
 6.71609000E+00
 6.60065900E+00
 6.48631600E+00
 6.37317700E+00
 6.26136100E+00
 6.15099200E+00
 6.04219400E+00
 5.93509400E+00
 5.82981400E+00
 5.72647600E+00
 5.62519400E+00
 5.52607500E+00
 5.42921600E+00
 5.33470500E+00
 5.24261300E+00
 5.15299900E+00
 5.06590600E+00
 4.98136200E+00
 4.89937900E+00
 4.81995200E+00
 4.74306300E+00
 4.66868100E+00
 4.59676200E+00
 4.52725300E+00
 4.46009300E+00
 4.39521500E+00
 4.33254800E+00
 4.27202000E+00
 4.21355900E+00
 4.15709200E+00
 4.10255000E+00
 4.04986700E+00
 3.99898000E+00
 3.94982900E+00
 3.90235900E+00
 3.85651500E+00
 3.81224600E+00
 3.76950000E+00
 3.72822700E+00
 3.68837300E+00
 3.64988100E+00
 3.61269100E+00
 3.57673600E+00
 3.54194100E+00
 3.50822400E+00
 3.47549300E+00
 3.44364600E+00
 3.41257000E+00
 3.38214000E+00
 3.35221800E+00
 3.32265800E+00
 3.29329900E+00
 3.26397000E+00
 3.23449000E+00
 3.20466800E+00
 3.17430400E+00
 3.14319200E+00
 3.11112100E+00
 3.07787400E+00
 3.04323600E+00
 3.00698900E+00
 2.96892000E+00
 2.92881900E+00
 2.88648600E+00
 2.84172900E+00
 2.79436800E+00
 2.74424000E+00
 2.69119800E+00
 2.63511400E+00
 2.57588000E+00
 2.51341100E+00
 2.44764700E+00
 2.37855100E+00
 2.30611000E+00
 2.23033600E+00
 2.15126500E+00
 2.06895600E+00
 1.98348700E+00
 1.89495600E+00
 1.80348000E+00
 1.70918600E+00
 1.61221600E+00
 1.51271900E+00
 1.41085300E+00
 1.30677700E+00
 1.20065300E+00
 1.09264100E+00
 9.82898300E-01
 8.71579000E-01
 7.58829900E-01
 6.44791300E-01
 5.29595300E-01
 4.13365700E-01
 2.96217300E-01
 1.78256200E-01
 5.95791200E-02
 7.18660800E+00
 7.06785300E+00
 6.94978700E+00
 6.83250100E+00
 6.71609000E+00
 6.60065900E+00
 6.48631600E+00
 6.37317700E+00
 6.26136100E+00
 6.15099200E+00
 6.04219400E+00
 5.93509400E+00
 5.82981400E+00
 5.72647600E+00
 5.62519400E+00
 5.52607500E+00
 5.42921600E+00
 5.33470500E+00
 5.24261300E+00
 5.15299900E+00
 5.06590600E+00
 4.98136200E+00
 4.89937900E+00
 4.81995200E+00
 4.74306300E+00
 4.66868100E+00
 4.59676200E+00
 4.52725300E+00
 4.46009300E+00
 4.39521500E+00
 4.33254800E+00
 4.27202000E+00
 4.21355900E+00
 4.15709200E+00
 4.10255000E+00
 4.04986700E+00
 3.99898000E+00
 3.94982900E+00
 3.90235900E+00
 3.85651500E+00
 3.81224600E+00
 3.76950000E+00
 3.72822700E+00
 3.68837300E+00
 3.64988100E+00
 3.61269100E+00
 3.57673600E+00
 3.54194100E+00
 3.50822400E+00
 3.47549300E+00
 3.44364600E+00
 3.41257000E+00
 3.38214000E+00
 3.35221800E+00
 3.32265800E+00
 3.29329900E+00
 3.26397000E+00
 3.23449000E+00
 3.20466800E+00
 3.17430400E+00
 3.14319200E+00
 3.11112100E+00
 3.07787400E+00
 3.04323600E+00
 3.00698900E+00
 2.96892000E+00
 2.92881900E+00
 2.88648600E+00
 2.84172900E+00
 2.79436800E+00
 2.74424000E+00
 2.69119800E+00
 2.63511400E+00
 2.57588000E+00
 2.51341100E+00
 2.44764700E+00
 2.37855100E+00
 2.30611000E+00
 2.23033600E+00
 2.15126500E+00
 2.06895600E+00
 1.98348700E+00
 1.89495600E+00
 1.80348000E+00
 1.70918600E+00
 1.61221600E+00
 1.51271900E+00
 1.41085300E+00
 1.30677700E+00
 1.20065300E+00
 1.09264100E+00
 9.82898300E-01
 8.71579000E-01
 7.58829900E-01
 6.44791300E-01
 5.29595300E-01
 4.13365700E-01
 2.96217300E-01
 1.78256200E-01
 5.95791200E-02
 7.18660800E+00
 7.06785300E+00
 6.94978700E+00
 6.83250100E+00
 6.71609000E+00
 6.60065900E+00
 6.48631600E+00
 6.37317700E+00
 6.26136100E+00
 6.15099200E+00
 6.04219400E+00
 5.93509400E+00
 5.82981400E+00
 5.72647600E+00
 5.62519400E+00
 5.52607500E+00
 5.42921600E+00
 5.33470500E+00
 5.24261300E+00
 5.15299900E+00
 5.06590600E+00
 4.98136200E+00
 4.89937900E+00
 4.81995200E+00
 4.74306300E+00
 4.66868100E+00
 4.59676200E+00
 4.52725300E+00
 4.46009300E+00
 4.39521500E+00
 4.33254800E+00
 4.27202000E+00
 4.21355900E+00
 4.15709200E+00
 4.10255000E+00
 4.04986700E+00
 3.99898000E+00
 3.94982900E+00
 3.90235900E+00
 3.85651500E+00
 3.81224600E+00
 3.76950000E+00
 3.72822700E+00
 3.68837300E+00
 3.64988100E+00
 3.61269100E+00
 3.57673600E+00
 3.54194100E+00
 3.50822400E+00
 3.47549300E+00
 3.44364600E+00
 3.41257000E+00
 3.38214000E+00
 3.35221800E+00
 3.32265800E+00
 3.29329900E+00
 3.26397000E+00
 3.23449000E+00
 3.20466800E+00
 3.17430400E+00
 3.14319200E+00
 3.11112100E+00
 3.07787400E+00
 3.04323600E+00
 3.00698900E+00
 2.96892000E+00
 2.92881900E+00
 2.88648600E+00
 2.84172900E+00
 2.79436800E+00
 2.74424000E+00
 2.69119800E+00
 2.63511400E+00
 2.57588000E+00
 2.51341100E+00
 2.44764700E+00
 2.37855100E+00
 2.30611000E+00
 2.23033600E+00
 2.15126500E+00
 2.06895600E+00
 1.98348700E+00
 1.89495600E+00
 1.80348000E+00
 1.70918600E+00
 1.61221600E+00
 1.51271900E+00
 1.41085300E+00
 1.30677700E+00
 1.20065300E+00
 1.09264100E+00
 9.82898300E-01
 8.71579000E-01
 7.58829900E-01
 6.44791300E-01
 5.29595300E-01
 4.13365700E-01
 2.96217300E-01
 1.78256200E-01
 5.95791200E-02
 7.18660800E+00
 7.06785300E+00
 6.94978700E+00
 6.83250100E+00
 6.71609000E+00
 6.60065900E+00
 6.48631600E+00
 6.37317700E+00
 6.26136100E+00
 6.15099200E+00
 6.04219400E+00
 5.93509400E+00
 5.82981400E+00
 5.72647600E+00
 5.62519400E+00
 5.52607500E+00
 5.42921600E+00
 5.33470500E+00
 5.24261300E+00
 5.15299900E+00
 5.06590600E+00
 4.98136200E+00
 4.89937900E+00
 4.81995200E+00
 4.74306300E+00
 4.66868100E+00
 4.59676200E+00
 4.52725300E+00
 4.46009300E+00
 4.39521500E+00
 4.33254800E+00
 4.27202000E+00
 4.21355900E+00
 4.15709200E+00
 4.10255000E+00
 4.04986700E+00
 3.99898000E+00
 3.94982900E+00
 3.90235900E+00
 3.85651500E+00
 3.81224600E+00
 3.76950000E+00
 3.72822700E+00
 3.68837300E+00
 3.64988100E+00
 3.61269100E+00
 3.57673600E+00
 3.54194100E+00
 3.50822400E+00
 3.47549300E+00
 3.44364600E+00
 3.41257000E+00
 3.38214000E+00
 3.35221800E+00
 3.32265800E+00
 3.29329900E+00
 3.26397000E+00
 3.23449000E+00
 3.20466800E+00
 3.17430400E+00
 3.14319200E+00
 3.11112100E+00
 3.07787400E+00
 3.04323600E+00
 3.00698900E+00
 2.96892000E+00
 2.92881900E+00
 2.88648600E+00
 2.84172900E+00
 2.79436800E+00
 2.74424000E+00
 2.69119800E+00
 2.63511400E+00
 2.57588000E+00
 2.51341100E+00
 2.44764700E+00
 2.37855100E+00
 2.30611000E+00
 2.23033600E+00
 2.15126500E+00
 2.06895600E+00
 1.98348700E+00
 1.89495600E+00
 1.80348000E+00
 1.70918600E+00
 1.61221600E+00
 1.51271900E+00
 1.41085300E+00
 1.30677700E+00
 1.20065300E+00
 1.09264100E+00
 9.82898300E-01
 8.71579000E-01
 7.58829900E-01
 6.44791300E-01
 5.29595300E-01
 4.13365700E-01
 2.96217300E-01
 1.78256200E-01
 5.95791200E-02
 7.18660800E+00
 7.06785300E+00
 6.94978700E+00
 6.83250100E+00
 6.71609000E+00
 6.60065900E+00
 6.48631600E+00
 6.37317700E+00
 6.26136100E+00
 6.15099200E+00
 6.04219400E+00
 5.93509400E+00
 5.82981400E+00
 5.72647600E+00
 5.62519400E+00
 5.52607500E+00
 5.42921600E+00
 5.33470500E+00
 5.24261300E+00
 5.15299900E+00
 5.06590600E+00
 4.98136200E+00
 4.89937900E+00
 4.81995200E+00
 4.74306300E+00
 4.66868100E+00
 4.59676200E+00
 4.52725300E+00
 4.46009300E+00
 4.39521500E+00
 4.33254800E+00
 4.27202000E+00
 4.21355900E+00
 4.15709200E+00
 4.10255000E+00
 4.04986700E+00
 3.99898000E+00
 3.94982900E+00
 3.90235900E+00
 3.85651500E+00
 3.81224600E+00
 3.76950000E+00
 3.72822700E+00
 3.68837300E+00
 3.64988100E+00
 3.61269100E+00
 3.57673600E+00
 3.54194100E+00
 3.50822400E+00
 3.47549300E+00
 3.44364600E+00
 3.41257000E+00
 3.38214000E+00
 3.35221800E+00
 3.32265800E+00
 3.29329900E+00
 3.26397000E+00
 3.23449000E+00
 3.20466800E+00
 3.17430400E+00
 3.14319200E+00
 3.11112100E+00
 3.07787400E+00
 3.04323600E+00
 3.00698900E+00
 2.96892000E+00
 2.92881900E+00
 2.88648600E+00
 2.84172900E+00
 2.79436800E+00
 2.74424000E+00
 2.69119800E+00
 2.63511400E+00
 2.57588000E+00
 2.51341100E+00
 2.44764700E+00
 2.37855100E+00
 2.30611000E+00
 2.23033600E+00
 2.15126500E+00
 2.06895600E+00
 1.98348700E+00
 1.89495600E+00
 1.80348000E+00
 1.70918600E+00
 1.61221600E+00
 1.51271900E+00
 1.41085300E+00
 1.30677700E+00
 1.20065300E+00
 1.09264100E+00
 9.82898300E-01
 8.71579000E-01
 7.58829900E-01
 6.44791300E-01
 5.29595300E-01
 4.13365700E-01
 2.96217300E-01
 1.78256200E-01
 5.95791200E-02
 7.18660800E+00
 7.06785300E+00
 6.94978700E+00
 6.83250100E+00
 6.71609000E+00
 6.60065900E+00
 6.48631600E+00
 6.37317700E+00
 6.26136100E+00
 6.15099200E+00
 6.04219400E+00
 5.93509400E+00
 5.82981400E+00
 5.72647600E+00
 5.62519400E+00
 5.52607500E+00
 5.42921600E+00
 5.33470500E+00
 5.24261300E+00
 5.15299900E+00
 5.06590600E+00
 4.98136200E+00
 4.89937900E+00
 4.81995200E+00
 4.74306300E+00
 4.66868100E+00
 4.59676200E+00
 4.52725300E+00
 4.46009300E+00
 4.39521500E+00
 4.33254800E+00
 4.27202000E+00
 4.21355900E+00
 4.15709200E+00
 4.10255000E+00
 4.04986700E+00
 3.99898000E+00
 3.94982900E+00
 3.90235900E+00
 3.85651500E+00
 3.81224600E+00
 3.76950000E+00
 3.72822700E+00
 3.68837300E+00
 3.64988100E+00
 3.61269100E+00
 3.57673600E+00
 3.54194100E+00
 3.50822400E+00
 3.47549300E+00
 3.44364600E+00
 3.41257000E+00
 3.38214000E+00
 3.35221800E+00
 3.32265800E+00
 3.29329900E+00
 3.26397000E+00
 3.23449000E+00
 3.20466800E+00
 3.17430400E+00
 3.14319200E+00
 3.11112100E+00
 3.07787400E+00
 3.04323600E+00
 3.00698900E+00
 2.96892000E+00
 2.92881900E+00
 2.88648600E+00
 2.84172900E+00
 2.79436800E+00
 2.74424000E+00
 2.69119800E+00
 2.63511400E+00
 2.57588000E+00
 2.51341100E+00
 2.44764700E+00
 2.37855100E+00
 2.30611000E+00
 2.23033600E+00
 2.15126500E+00
 2.06895600E+00
 1.98348700E+00
 1.89495600E+00
 1.80348000E+00
 1.70918600E+00
 1.61221600E+00
 1.51271900E+00
 1.41085300E+00
 1.30677700E+00
 1.20065300E+00
 1.09264100E+00
 9.82898300E-01
 8.71579000E-01
 7.58829900E-01
 6.44791300E-01
 5.29595300E-01
 4.13365700E-01
 2.96217300E-01
 1.78256200E-01
 5.95791200E-02
 7.18660800E+00
 7.06785300E+00
 6.94978700E+00
 6.83250100E+00
 6.71609000E+00
 6.60065900E+00
 6.48631600E+00
 6.37317700E+00
 6.26136100E+00
 6.15099200E+00
 6.04219400E+00
 5.93509400E+00
 5.82981400E+00
 5.72647600E+00
 5.62519400E+00
 5.52607500E+00
 5.42921600E+00
 5.33470500E+00
 5.24261300E+00
 5.15299900E+00
 5.06590600E+00
 4.98136200E+00
 4.89937900E+00
 4.81995200E+00
 4.74306300E+00
 4.66868100E+00
 4.59676200E+00
 4.52725300E+00
 4.46009300E+00
 4.39521500E+00
 4.33254800E+00
 4.27202000E+00
 4.21355900E+00
 4.15709200E+00
 4.10255000E+00
 4.04986700E+00
 3.99898000E+00
 3.94982900E+00
 3.90235900E+00
 3.85651500E+00
 3.81224600E+00
 3.76950000E+00
 3.72822700E+00
 3.68837300E+00
 3.64988100E+00
 3.61269100E+00
 3.57673600E+00
 3.54194100E+00
 3.50822400E+00
 3.47549300E+00
 3.44364600E+00
 3.41257000E+00
 3.38214000E+00
 3.35221800E+00
 3.32265800E+00
 3.29329900E+00
 3.26397000E+00
 3.23449000E+00
 3.20466800E+00
 3.17430400E+00
 3.14319200E+00
 3.11112100E+00
 3.07787400E+00
 3.04323600E+00
 3.00698900E+00
 2.96892000E+00
 2.92881900E+00
 2.88648600E+00
 2.84172900E+00
 2.79436800E+00
 2.74424000E+00
 2.69119800E+00
 2.63511400E+00
 2.57588000E+00
 2.51341100E+00
 2.44764700E+00
 2.37855100E+00
 2.30611000E+00
 2.23033600E+00
 2.15126500E+00
 2.06895600E+00
 1.98348700E+00
 1.89495600E+00
 1.80348000E+00
 1.70918600E+00
 1.61221600E+00
 1.51271900E+00
 1.41085300E+00
 1.30677700E+00
 1.20065300E+00
 1.09264100E+00
 9.82898300E-01
 8.71579000E-01
 7.58829900E-01
 6.44791300E-01
 5.29595300E-01
 4.13365700E-01
 2.96217300E-01
 1.78256200E-01
 5.95791200E-02
 7.18660800E+00
 7.06785300E+00
 6.94978700E+00
 6.83250100E+00
 6.71609000E+00
 6.60065900E+00
 6.48631600E+00
 6.37317700E+00
 6.26136100E+00
 6.15099200E+00
 6.04219400E+00
 5.93509400E+00
 5.82981400E+00
 5.72647600E+00
 5.62519400E+00
 5.52607500E+00
 5.42921600E+00
 5.33470500E+00
 5.24261300E+00
 5.15299900E+00
 5.06590600E+00
 4.98136200E+00
 4.89937900E+00
 4.81995200E+00
 4.74306300E+00
 4.66868100E+00
 4.59676200E+00
 4.52725300E+00
 4.46009300E+00
 4.39521500E+00
 4.33254800E+00
 4.27202000E+00
 4.21355900E+00
 4.15709200E+00
 4.10255000E+00
 4.04986700E+00
 3.99898000E+00
 3.94982900E+00
 3.90235900E+00
 3.85651500E+00
 3.81224600E+00
 3.76950000E+00
 3.72822700E+00
 3.68837300E+00
 3.64988100E+00
 3.61269100E+00
 3.57673600E+00
 3.54194100E+00
 3.50822400E+00
 3.47549300E+00
 3.44364600E+00
 3.41257000E+00
 3.38214000E+00
 3.35221800E+00
 3.32265800E+00
 3.29329900E+00
 3.26397000E+00
 3.23449000E+00
 3.20466800E+00
 3.17430400E+00
 3.14319200E+00
 3.11112100E+00
 3.07787400E+00
 3.04323600E+00
 3.00698900E+00
 2.96892000E+00
 2.92881900E+00
 2.88648600E+00
 2.84172900E+00
 2.79436800E+00
 2.74424000E+00
 2.69119800E+00
 2.63511400E+00
 2.57588000E+00
 2.51341100E+00
 2.44764700E+00
 2.37855100E+00
 2.30611000E+00
 2.23033600E+00
 2.15126500E+00
 2.06895600E+00
 1.98348700E+00
 1.89495600E+00
 1.80348000E+00
 1.70918600E+00
 1.61221600E+00
 1.51271900E+00
 1.41085300E+00
 1.30677700E+00
 1.20065300E+00
 1.09264100E+00
 9.82898300E-01
 8.71579000E-01
 7.58829900E-01
 6.44791300E-01
 5.29595300E-01
 4.13365700E-01
 2.96217300E-01
 1.78256200E-01
 5.95791200E-02
SCALARS         h               double 1       
LOOKUP_TABLE default           
 1.00000000E-01
 0.00000000E+00
 0.00000000E+00
 0.00000000E+00
 0.00000000E+00
 0.00000000E+00
 0.00000000E+00
 0.00000000E+00
 0.00000000E+00
 0.00000000E+00
 0.00000000E+00
 0.00000000E+00
 0.00000000E+00
 0.00000000E+00
 0.00000000E+00
 0.00000000E+00
 0.00000000E+00
 0.00000000E+00
 0.00000000E+00
 0.00000000E+00
 0.00000000E+00
 0.00000000E+00
 0.00000000E+00
 0.00000000E+00
 0.00000000E+00
 0.00000000E+00
 0.00000000E+00
 0.00000000E+00
 0.00000000E+00
 0.00000000E+00
 0.00000000E+00
 0.00000000E+00
 0.00000000E+00
 0.00000000E+00
 0.00000000E+00
 0.00000000E+00
 0.00000000E+00
 0.00000000E+00
 0.00000000E+00
 0.00000000E+00
 0.00000000E+00
 0.00000000E+00
 0.00000000E+00
 0.00000000E+00
 0.00000000E+00
 0.00000000E+00
 0.00000000E+00
 0.00000000E+00
 0.00000000E+00
 0.00000000E+00
 0.00000000E+00
 0.00000000E+00
 0.00000000E+00
 0.00000000E+00
 0.00000000E+00
 0.00000000E+00
 0.00000000E+00
 0.00000000E+00
 0.00000000E+00
 0.00000000E+00
 0.00000000E+00
 0.00000000E+00
 0.00000000E+00
 0.00000000E+00
 0.00000000E+00
 0.00000000E+00
 0.00000000E+00
 0.00000000E+00
 0.00000000E+00
 0.00000000E+00
 0.00000000E+00
 0.00000000E+00
 0.00000000E+00
 0.00000000E+00
 0.00000000E+00
 0.00000000E+00
 0.00000000E+00
 0.00000000E+00
 0.00000000E+00
 0.00000000E+00
 0.00000000E+00
 0.00000000E+00
 0.00000000E+00
 0.00000000E+00
 0.00000000E+00
 0.00000000E+00
 0.00000000E+00
 0.00000000E+00
 0.00000000E+00
 0.00000000E+00
 0.00000000E+00
 0.00000000E+00
 0.00000000E+00
 0.00000000E+00
 0.00000000E+00
 0.00000000E+00
 0.00000000E+00
 0.00000000E+00
 0.00000000E+00
 0.00000000E+00
 0.00000000E+00
 0.00000000E+00
 0.00000000E+00
 0.00000000E+00
 0.00000000E+00
 0.00000000E+00
 0.00000000E+00
 0.00000000E+00
 0.00000000E+00
 0.00000000E+00
 0.00000000E+00
 0.00000000E+00
 0.00000000E+00
 0.00000000E+00
 0.00000000E+00
 0.00000000E+00
 0.00000000E+00
 0.00000000E+00
 0.00000000E+00
 0.00000000E+00
 0.00000000E+00
 0.00000000E+00
 0.00000000E+00
 0.00000000E+00
 0.00000000E+00
 0.00000000E+00
 0.00000000E+00
 0.00000000E+00
 0.00000000E+00
 0.00000000E+00
 0.00000000E+00
 0.00000000E+00
 0.00000000E+00
 0.00000000E+00
 0.00000000E+00
 0.00000000E+00
 0.00000000E+00
 0.00000000E+00
 0.00000000E+00
 0.00000000E+00
 0.00000000E+00
 0.00000000E+00
 0.00000000E+00
 0.00000000E+00
 0.00000000E+00
 0.00000000E+00
 0.00000000E+00
 0.00000000E+00
 0.00000000E+00
 0.00000000E+00
 0.00000000E+00
 0.00000000E+00
 0.00000000E+00
 0.00000000E+00
 0.00000000E+00
 0.00000000E+00
 0.00000000E+00
 0.00000000E+00
 0.00000000E+00
 0.00000000E+00
 0.00000000E+00
 0.00000000E+00
 0.00000000E+00
 0.00000000E+00
 0.00000000E+00
 0.00000000E+00
 0.00000000E+00
 0.00000000E+00
 0.00000000E+00
 0.00000000E+00
 0.00000000E+00
 0.00000000E+00
 0.00000000E+00
 0.00000000E+00
 0.00000000E+00
 0.00000000E+00
 0.00000000E+00
 0.00000000E+00
 0.00000000E+00
 0.00000000E+00
 0.00000000E+00
 0.00000000E+00
 0.00000000E+00
 0.00000000E+00
 0.00000000E+00
 0.00000000E+00
 0.00000000E+00
 0.00000000E+00
 0.00000000E+00
 0.00000000E+00
 0.00000000E+00
 0.00000000E+00
 0.00000000E+00
 0.00000000E+00
 0.00000000E+00
 0.00000000E+00
 0.00000000E+00
 0.00000000E+00
 0.00000000E+00
 0.00000000E+00
 0.00000000E+00
 0.00000000E+00
 0.00000000E+00
 0.00000000E+00
 0.00000000E+00
 0.00000000E+00
 0.00000000E+00
 0.00000000E+00
 0.00000000E+00
 0.00000000E+00
 0.00000000E+00
 0.00000000E+00
 0.00000000E+00
 0.00000000E+00
 0.00000000E+00
 0.00000000E+00
 0.00000000E+00
 0.00000000E+00
 0.00000000E+00
 0.00000000E+00
 0.00000000E+00
 0.00000000E+00
 0.00000000E+00
 0.00000000E+00
 0.00000000E+00
 0.00000000E+00
 0.00000000E+00
 0.00000000E+00
 0.00000000E+00
 0.00000000E+00
 0.00000000E+00
 0.00000000E+00
 0.00000000E+00
 0.00000000E+00
 0.00000000E+00
 0.00000000E+00
 0.00000000E+00
 0.00000000E+00