# vtk DataFile Version 3.0     
DassFlow Output File           
ASCII          
DATASET UNSTRUCTURED_GRID      
POINTS                      1000 double        
 0.00000000E+00  0.00000000E+00  0.00000000E+00
 1.01010100E+01  0.00000000E+00  0.00000000E+00
 2.02020200E+01  0.00000000E+00  0.00000000E+00
 3.03030300E+01  0.00000000E+00  0.00000000E+00
 4.04040400E+01  0.00000000E+00  0.00000000E+00
 5.05050500E+01  0.00000000E+00  0.00000000E+00
 6.06060600E+01  0.00000000E+00  0.00000000E+00
 7.07070700E+01  0.00000000E+00  0.00000000E+00
 8.08080800E+01  0.00000000E+00  0.00000000E+00
 9.09090900E+01  0.00000000E+00  0.00000000E+00
 1.01010100E+02  0.00000000E+00  0.00000000E+00
 1.11111100E+02  0.00000000E+00  0.00000000E+00
 1.21212100E+02  0.00000000E+00  0.00000000E+00
 1.31313100E+02  0.00000000E+00  0.00000000E+00
 1.41414100E+02  0.00000000E+00  0.00000000E+00
 1.51515200E+02  0.00000000E+00  0.00000000E+00
 1.61616200E+02  0.00000000E+00  0.00000000E+00
 1.71717200E+02  0.00000000E+00  0.00000000E+00
 1.81818200E+02  0.00000000E+00  0.00000000E+00
 1.91919200E+02  0.00000000E+00  0.00000000E+00
 2.02020200E+02  0.00000000E+00  0.00000000E+00
 2.12121200E+02  0.00000000E+00  0.00000000E+00
 2.22222200E+02  0.00000000E+00  0.00000000E+00
 2.32323200E+02  0.00000000E+00  0.00000000E+00
 2.42424200E+02  0.00000000E+00  0.00000000E+00
 2.52525300E+02  0.00000000E+00  0.00000000E+00
 2.62626300E+02  0.00000000E+00  0.00000000E+00
 2.72727300E+02  0.00000000E+00  0.00000000E+00
 2.82828300E+02  0.00000000E+00  0.00000000E+00
 2.92929300E+02  0.00000000E+00  0.00000000E+00
 3.03030300E+02  0.00000000E+00  0.00000000E+00
 3.13131300E+02  0.00000000E+00  0.00000000E+00
 3.23232300E+02  0.00000000E+00  0.00000000E+00
 3.33333300E+02  0.00000000E+00  0.00000000E+00
 3.43434300E+02  0.00000000E+00  0.00000000E+00
 3.53535400E+02  0.00000000E+00  0.00000000E+00
 3.63636400E+02  0.00000000E+00  0.00000000E+00
 3.73737400E+02  0.00000000E+00  0.00000000E+00
 3.83838400E+02  0.00000000E+00  0.00000000E+00
 3.93939400E+02  0.00000000E+00  0.00000000E+00
 4.04040400E+02  0.00000000E+00  0.00000000E+00
 4.14141400E+02  0.00000000E+00  0.00000000E+00
 4.24242400E+02  0.00000000E+00  0.00000000E+00
 4.34343400E+02  0.00000000E+00  0.00000000E+00
 4.44444400E+02  0.00000000E+00  0.00000000E+00
 4.54545500E+02  0.00000000E+00  0.00000000E+00
 4.64646500E+02  0.00000000E+00  0.00000000E+00
 4.74747500E+02  0.00000000E+00  0.00000000E+00
 4.84848500E+02  0.00000000E+00  0.00000000E+00
 4.94949500E+02  0.00000000E+00  0.00000000E+00
 5.05050500E+02  0.00000000E+00  0.00000000E+00
 5.15151500E+02  0.00000000E+00  0.00000000E+00
 5.25252500E+02  0.00000000E+00  0.00000000E+00
 5.35353500E+02  0.00000000E+00  0.00000000E+00
 5.45454500E+02  0.00000000E+00  0.00000000E+00
 5.55555600E+02  0.00000000E+00  0.00000000E+00
 5.65656600E+02  0.00000000E+00  0.00000000E+00
 5.75757600E+02  0.00000000E+00  0.00000000E+00
 5.85858600E+02  0.00000000E+00  0.00000000E+00
 5.95959600E+02  0.00000000E+00  0.00000000E+00
 6.06060600E+02  0.00000000E+00  0.00000000E+00
 6.16161600E+02  0.00000000E+00  0.00000000E+00
 6.26262600E+02  0.00000000E+00  0.00000000E+00
 6.36363600E+02  0.00000000E+00  0.00000000E+00
 6.46464600E+02  0.00000000E+00  0.00000000E+00
 6.56565700E+02  0.00000000E+00  0.00000000E+00
 6.66666700E+02  0.00000000E+00  0.00000000E+00
 6.76767700E+02  0.00000000E+00  0.00000000E+00
 6.86868700E+02  0.00000000E+00  0.00000000E+00
 6.96969700E+02  0.00000000E+00  0.00000000E+00
 7.07070700E+02  0.00000000E+00  0.00000000E+00
 7.17171700E+02  0.00000000E+00  0.00000000E+00
 7.27272700E+02  0.00000000E+00  0.00000000E+00
 7.37373700E+02  0.00000000E+00  0.00000000E+00
 7.47474700E+02  0.00000000E+00  0.00000000E+00
 7.57575800E+02  0.00000000E+00  0.00000000E+00
 7.67676800E+02  0.00000000E+00  0.00000000E+00
 7.77777800E+02  0.00000000E+00  0.00000000E+00
 7.87878800E+02  0.00000000E+00  0.00000000E+00
 7.97979800E+02  0.00000000E+00  0.00000000E+00
 8.08080800E+02  0.00000000E+00  0.00000000E+00
 8.18181800E+02  0.00000000E+00  0.00000000E+00
 8.28282800E+02  0.00000000E+00  0.00000000E+00
 8.38383800E+02  0.00000000E+00  0.00000000E+00
 8.48484800E+02  0.00000000E+00  0.00000000E+00
 8.58585900E+02  0.00000000E+00  0.00000000E+00
 8.68686900E+02  0.00000000E+00  0.00000000E+00
 8.78787900E+02  0.00000000E+00  0.00000000E+00
 8.88888900E+02  0.00000000E+00  0.00000000E+00
 8.98989900E+02  0.00000000E+00  0.00000000E+00
 9.09090900E+02  0.00000000E+00  0.00000000E+00
 9.19191900E+02  0.00000000E+00  0.00000000E+00
 9.29292900E+02  0.00000000E+00  0.00000000E+00
 9.39393900E+02  0.00000000E+00  0.00000000E+00
 9.49494900E+02  0.00000000E+00  0.00000000E+00
 9.59596000E+02  0.00000000E+00  0.00000000E+00
 9.69697000E+02  0.00000000E+00  0.00000000E+00
 9.79798000E+02  0.00000000E+00  0.00000000E+00
 9.89899000E+02  0.00000000E+00  0.00000000E+00
 1.00000000E+03  0.00000000E+00  0.00000000E+00
 0.00000000E+00  1.11111100E+01  0.00000000E+00
 1.01010100E+01  1.11111100E+01  0.00000000E+00
 2.02020200E+01  1.11111100E+01  0.00000000E+00
 3.03030300E+01  1.11111100E+01  0.00000000E+00
 4.04040400E+01  1.11111100E+01  0.00000000E+00
 5.05050500E+01  1.11111100E+01  0.00000000E+00
 6.06060600E+01  1.11111100E+01  0.00000000E+00
 7.07070700E+01  1.11111100E+01  0.00000000E+00
 8.08080800E+01  1.11111100E+01  0.00000000E+00
 9.09090900E+01  1.11111100E+01  0.00000000E+00
 1.01010100E+02  1.11111100E+01  0.00000000E+00
 1.11111100E+02  1.11111100E+01  0.00000000E+00
 1.21212100E+02  1.11111100E+01  0.00000000E+00
 1.31313100E+02  1.11111100E+01  0.00000000E+00
 1.41414100E+02  1.11111100E+01  0.00000000E+00
 1.51515200E+02  1.11111100E+01  0.00000000E+00
 1.61616200E+02  1.11111100E+01  0.00000000E+00
 1.71717200E+02  1.11111100E+01  0.00000000E+00
 1.81818200E+02  1.11111100E+01  0.00000000E+00
 1.91919200E+02  1.11111100E+01  0.00000000E+00
 2.02020200E+02  1.11111100E+01  0.00000000E+00
 2.12121200E+02  1.11111100E+01  0.00000000E+00
 2.22222200E+02  1.11111100E+01  0.00000000E+00
 2.32323200E+02  1.11111100E+01  0.00000000E+00
 2.42424200E+02  1.11111100E+01  0.00000000E+00
 2.52525300E+02  1.11111100E+01  0.00000000E+00
 2.62626300E+02  1.11111100E+01  0.00000000E+00
 2.72727300E+02  1.11111100E+01  0.00000000E+00
 2.82828300E+02  1.11111100E+01  0.00000000E+00
 2.92929300E+02  1.11111100E+01  0.00000000E+00
 3.03030300E+02  1.11111100E+01  0.00000000E+00
 3.13131300E+02  1.11111100E+01  0.00000000E+00
 3.23232300E+02  1.11111100E+01  0.00000000E+00
 3.33333300E+02  1.11111100E+01  0.00000000E+00
 3.43434300E+02  1.11111100E+01  0.00000000E+00
 3.53535400E+02  1.11111100E+01  0.00000000E+00
 3.63636400E+02  1.11111100E+01  0.00000000E+00
 3.73737400E+02  1.11111100E+01  0.00000000E+00
 3.83838400E+02  1.11111100E+01  0.00000000E+00
 3.93939400E+02  1.11111100E+01  0.00000000E+00
 4.04040400E+02  1.11111100E+01  0.00000000E+00
 4.14141400E+02  1.11111100E+01  0.00000000E+00
 4.24242400E+02  1.11111100E+01  0.00000000E+00
 4.34343400E+02  1.11111100E+01  0.00000000E+00
 4.44444400E+02  1.11111100E+01  0.00000000E+00
 4.54545500E+02  1.11111100E+01  0.00000000E+00
 4.64646500E+02  1.11111100E+01  0.00000000E+00
 4.74747500E+02  1.11111100E+01  0.00000000E+00
 4.84848500E+02  1.11111100E+01  0.00000000E+00
 4.94949500E+02  1.11111100E+01  0.00000000E+00
 5.05050500E+02  1.11111100E+01  0.00000000E+00
 5.15151500E+02  1.11111100E+01  0.00000000E+00
 5.25252500E+02  1.11111100E+01  0.00000000E+00
 5.35353500E+02  1.11111100E+01  0.00000000E+00
 5.45454500E+02  1.11111100E+01  0.00000000E+00
 5.55555600E+02  1.11111100E+01  0.00000000E+00
 5.65656600E+02  1.11111100E+01  0.00000000E+00
 5.75757600E+02  1.11111100E+01  0.00000000E+00
 5.85858600E+02  1.11111100E+01  0.00000000E+00
 5.95959600E+02  1.11111100E+01  0.00000000E+00
 6.06060600E+02  1.11111100E+01  0.00000000E+00
 6.16161600E+02  1.11111100E+01  0.00000000E+00
 6.26262600E+02  1.11111100E+01  0.00000000E+00
 6.36363600E+02  1.11111100E+01  0.00000000E+00
 6.46464600E+02  1.11111100E+01  0.00000000E+00
 6.56565700E+02  1.11111100E+01  0.00000000E+00
 6.66666700E+02  1.11111100E+01  0.00000000E+00
 6.76767700E+02  1.11111100E+01  0.00000000E+00
 6.86868700E+02  1.11111100E+01  0.00000000E+00
 6.96969700E+02  1.11111100E+01  0.00000000E+00
 7.07070700E+02  1.11111100E+01  0.00000000E+00
 7.17171700E+02  1.11111100E+01  0.00000000E+00
 7.27272700E+02  1.11111100E+01  0.00000000E+00
 7.37373700E+02  1.11111100E+01  0.00000000E+00
 7.47474700E+02  1.11111100E+01  0.00000000E+00
 7.57575800E+02  1.11111100E+01  0.00000000E+00
 7.67676800E+02  1.11111100E+01  0.00000000E+00
 7.77777800E+02  1.11111100E+01  0.00000000E+00
 7.87878800E+02  1.11111100E+01  0.00000000E+00
 7.97979800E+02  1.11111100E+01  0.00000000E+00
 8.08080800E+02  1.11111100E+01  0.00000000E+00
 8.18181800E+02  1.11111100E+01  0.00000000E+00
 8.28282800E+02  1.11111100E+01  0.00000000E+00
 8.38383800E+02  1.11111100E+01  0.00000000E+00
 8.48484800E+02  1.11111100E+01  0.00000000E+00
 8.58585900E+02  1.11111100E+01  0.00000000E+00
 8.68686900E+02  1.11111100E+01  0.00000000E+00
 8.78787900E+02  1.11111100E+01  0.00000000E+00
 8.88888900E+02  1.11111100E+01  0.00000000E+00
 8.98989900E+02  1.11111100E+01  0.00000000E+00
 9.09090900E+02  1.11111100E+01  0.00000000E+00
 9.19191900E+02  1.11111100E+01  0.00000000E+00
 9.29292900E+02  1.11111100E+01  0.00000000E+00
 9.39393900E+02  1.11111100E+01  0.00000000E+00
 9.49494900E+02  1.11111100E+01  0.00000000E+00
 9.59596000E+02  1.11111100E+01  0.00000000E+00
 9.69697000E+02  1.11111100E+01  0.00000000E+00
 9.79798000E+02  1.11111100E+01  0.00000000E+00
 9.89899000E+02  1.11111100E+01  0.00000000E+00
 1.00000000E+03  1.11111100E+01  0.00000000E+00
 0.00000000E+00  2.22222200E+01  0.00000000E+00
 1.01010100E+01  2.22222200E+01  0.00000000E+00
 2.02020200E+01  2.22222200E+01  0.00000000E+00
 3.03030300E+01  2.22222200E+01  0.00000000E+00
 4.04040400E+01  2.22222200E+01  0.00000000E+00
[...]
CELL_DATA                   891
SCALARS         bathy           double 1       
LOOKUP_TABLE default           
 2.48737400E+00
 2.46212100E+00
 2.43686900E+00
 2.41161600E+00
 2.38636400E+00
 2.36111100E+00
 2.33585900E+00
 2.31060600E+00
 2.28535400E+00
 2.26010100E+00
 2.23484800E+00
 2.20959600E+00
 2.18434300E+00
 2.15909100E+00
 2.13383800E+00
 2.10858600E+00
 2.08333300E+00
 2.05808100E+00
 2.03282800E+00
 2.00757600E+00
 2.00007000E+00
 1.99989400E+00
 1.99902800E+00
 1.99708100E+00
 1.99367700E+00
 1.98846600E+00
 1.98112400E+00
 1.97136300E+00
 1.95893500E+00
 1.94363200E+00
 1.94556900E+00
 1.94911100E+00
 1.94871800E+00
 1.94399000E+00
 1.93459700E+00
 1.92028200E+00
 1.90087200E+00
 1.87627100E+00
 1.84646800E+00
 1.81153800E+00
 1.77163600E+00
 1.72699700E+00
 1.67793400E+00
 1.62482900E+00
 1.56813200E+00
 1.50834700E+00
 1.44603000E+00
 1.38177800E+00
 1.31621900E+00
 1.25000000E+00
 1.18378100E+00
 1.11822200E+00
 1.05397000E+00
 9.91653300E-01
 9.31868300E-01
 8.75170600E-01
 8.22066100E-01
 7.73002900E-01
 7.28364200E-01
 6.88461900E-01
 6.53531700E-01
 6.23729400E-01
 5.99128200E-01
 5.79717500E-01
 5.65403400E-01
 5.56009900E-01
 5.51281800E-01
 5.50888800E-01
 5.54431000E-01
 5.56368300E-01
 5.41065500E-01
 5.28636900E-01
 5.18876300E-01
 5.11534300E-01
 5.06322700E-01
 5.02919100E-01
 5.00971900E-01
 5.00106200E-01
 4.99929500E-01
 4.92424200E-01
 4.67171700E-01
 4.41919200E-01
 4.16666700E-01
 3.91414100E-01
 3.66161600E-01
 3.40909100E-01
 3.15656600E-01
 2.90404000E-01
 2.65151500E-01
 2.39899000E-01
 2.14646500E-01
 1.89393900E-01
 1.64141400E-01
 1.38888900E-01
 1.13636400E-01
 8.83838400E-02
 6.31313100E-02
 3.78787900E-02
 1.26262600E-02
 2.48737400E+00
 2.46212100E+00
 2.43686900E+00
 2.41161600E+00
 2.38636400E+00
 2.36111100E+00
 2.33585900E+00
 2.31060600E+00
 2.28535400E+00
 2.26010100E+00
 2.23484800E+00
 2.20959600E+00
 2.18434300E+00
 2.15909100E+00
 2.13383800E+00
 2.10858600E+00
 2.08333300E+00
 2.05808100E+00
 2.03282800E+00
 2.00757600E+00
 2.00007000E+00
 1.99989400E+00
 1.99902800E+00
 1.99708100E+00
 1.99367700E+00
 1.98846600E+00
 1.98112400E+00
 1.97136300E+00
 1.95893500E+00
 1.94363200E+00
 1.94556900E+00
 1.94911100E+00
 1.94871800E+00
 1.94399000E+00
 1.93459700E+00
 1.92028200E+00
 1.90087200E+00
 1.87627100E+00
 1.84646800E+00
 1.81153800E+00
 1.77163600E+00
 1.72699700E+00
 1.67793400E+00
 1.62482900E+00
 1.56813200E+00
 1.50834700E+00
 1.44603000E+00
 1.38177800E+00
 1.31621900E+00
 1.25000000E+00
 1.18378100E+00
 1.11822200E+00
 1.05397000E+00
 9.91653300E-01
 9.31868300E-01
 8.75170600E-01
 8.22066100E-01
 7.73002900E-01
 7.28364200E-01
 6.88461900E-01
 6.53531700E-01
 6.23729400E-01
 5.99128200E-01
 5.79717500E-01
 5.65403400E-01
 5.56009900E-01
 5.51281800E-01
 5.50888800E-01
 5.54431000E-01
 5.56368300E-01
 5.41065500E-01
 5.28636900E-01
 5.18876300E-01
 5.11534300E-01
 5.06322700E-01
 5.02919100E-01
 5.00971900E-01
 5.00106200E-01
 4.99929500E-01
 4.92424200E-01
 4.67171700E-01
 4.41919200E-01
 4.16666700E-01
 3.91414100E-01
 3.66161600E-01
 3.40909100E-01
 3.15656600E-01
 2.90404000E-01
 2.65151500E-01
 2.39899000E-01
 2.14646500E-01
 1.89393900E-01
 1.64141400E-01
 1.38888900E-01
 1.13636400E-01
 8.83838400E-02
 6.31313100E-02
 3.78787900E-02
 1.26262600E-02
 2.48737400E+00
 2.46212100E+00
 2.43686900E+00
 2.41161600E+00
 2.38636400E+00
 2.36111100E+00
 2.33585900E+00
 2.31060600E+00
 2.28535400E+00
 2.26010100E+00
 2.23484800E+00
 2.20959600E+00
 2.18434300E+00
 2.15909100E+00
 2.13383800E+00
 2.10858600E+00
 2.08333300E+00
 2.05808100E+00
 2.03282800E+00
 2.00757600E+00
 2.00007000E+00
 1.99989400E+00
 1.99902800E+00
 1.99708100E+00
 1.99367700E+00
 1.98846600E+00
 1.98112400E+00
 1.97136300E+00
 1.95893500E+00
 1.94363200E+00
 1.94556900E+00
 1.94911100E+00
 1.94871800E+00
 1.94399000E+00
 1.93459700E+00
 1.92028200E+00
 1.90087200E+00
 1.87627100E+00
 1.84646800E+00
 1.81153800E+00
 1.77163600E+00
 1.72699700E+00
 1.67793400E+00
 1.62482900E+00
 1.56813200E+00
 1.50834700E+00
 1.44603000E+00
 1.38177800E+00
 1.31621900E+00
 1.25000000E+00
 1.18378100E+00
 1.11822200E+00
 1.05397000E+00
 9.91653300E-01
 9.31868300E-01
 8.75170600E-01
 8.22066100E-01
 7.73002900E-01
 7.28364200E-01
 6.88461900E-01
 6.53531700E-01
 6.23729400E-01
 5.99128200E-01
 5.79717500E-01
 5.65403400E-01
 5.56009900E-01
 5.51281800E-01
 5.50888800E-01
 5.54431000E-01
 5.56368300E-01
 5.41065500E-01
 5.28636900E-01
 5.18876300E-01
 5.11534300E-01
 5.06322700E-01
 5.02919100E-01
 5.00971900E-01
 5.00106200E-01
 4.99929500E-01
 4.92424200E-01
 4.67171700E-01
 4.41919200E-01
 4.16666700E-01
 3.91414100E-01
 3.66161600E-01
 3.40909100E-01
 3.15656600E-01
 2.90404000E-01
 2.65151500E-01
 2.39899000E-01
 2.14646500E-01
 1.89393900E-01
 1.64141400E-01
 1.38888900E-01
 1.13636400E-01
 8.83838400E-02
 6.31313100E-02
 3.78787900E-02
 1.26262600E-02
 2.48737400E+00
 2.46212100E+00
 2.43686900E+00
 2.41161600E+00
 2.38636400E+00
 2.36111100E+00
 2.33585900E+00
 2.31060600E+00
 2.28535400E+00
 2.26010100E+00
 2.23484800E+00
 2.20959600E+00
 2.18434300E+00
 2.15909100E+00
 2.13383800E+00
 2.10858600E+00
 2.08333300E+00
 2.05808100E+00
 2.03282800E+00
 2.00757600E+00
 2.00007000E+00
 1.99989400E+00
 1.99902800E+00
 1.99708100E+00
 1.99367700E+00
 1.98846600E+00
 1.98112400E+00
 1.97136300E+00
 1.95893500E+00
 1.94363200E+00
 1.94556900E+00
 1.94911100E+00
 1.94871800E+00
 1.94399000E+00
 1.93459700E+00
 1.92028200E+00
 1.90087200E+00
 1.87627100E+00
 1.84646800E+00
 1.81153800E+00
 1.77163600E+00
 1.72699700E+00
 1.67793400E+00
 1.62482900E+00
 1.56813200E+00
 1.50834700E+00
 1.44603000E+00
 1.38177800E+00
 1.31621900E+00
 1.25000000E+00
 1.18378100E+00
 1.11822200E+00
 1.05397000E+00
 9.91653300E-01
 9.31868300E-01
 8.75170600E-01
 8.22066100E-01
 7.73002900E-01
 7.28364200E-01
 6.88461900E-01
 6.53531700E-01
 6.23729400E-01
 5.99128200E-01
 5.79717500E-01
 5.65403400E-01
 5.56009900E-01
 5.51281800E-01
 5.50888800E-01
 5.54431000E-01
 5.56368300E-01
 5.41065500E-01
 5.28636900E-01
 5.18876300E-01
 5.11534300E-01
 5.06322700E-01
 5.02919100E-01
 5.00971900E-01
 5.00106200E-01
 4.99929500E-01
 4.92424200E-01
 4.67171700E-01
 4.41919200E-01
 4.16666700E-01
 3.91414100E-01
 3.66161600E-01
 3.40909100E-01
 3.15656600E-01
 2.90404000E-01
 2.65151500E-01
 2.39899000E-01
 2.14646500E-01
 1.89393900E-01
 1.64141400E-01
 1.38888900E-01
 1.13636400E-01
 8.83838400E-02
 6.31313100E-02
 3.78787900E-02
 1.26262600E-02
 2.48737400E+00
 2.46212100E+00
 2.43686900E+00
 2.41161600E+00
 2.38636400E+00
 2.36111100E+00
 2.33585900E+00
 2.31060600E+00
 2.28535400E+00
 2.26010100E+00
 2.23484800E+00
 2.20959600E+00
 2.18434300E+00
 2.15909100E+00
 2.13383800E+00
 2.10858600E+00
 2.08333300E+00
 2.05808100E+00
 2.03282800E+00
 2.00757600E+00
 2.00007000E+00
 1.99989400E+00
 1.99902800E+00
 1.99708100E+00
 1.99367700E+00
 1.98846600E+00
 1.98112400E+00
 1.97136300E+00
 1.95893500E+00
 1.94363200E+00
 1.94556900E+00
 1.94911100E+00
 1.94871800E+00
 1.94399000E+00
 1.93459700E+00
 1.92028200E+00
 1.90087200E+00
 1.87627100E+00
 1.84646800E+00
 1.81153800E+00
 1.77163600E+00
 1.72699700E+00
 1.67793400E+00
 1.62482900E+00
 1.56813200E+00
 1.50834700E+00
 1.44603000E+00
 1.38177800E+00
 1.31621900E+00
 1.25000000E+00
 1.18378100E+00
 1.11822200E+00
 1.05397000E+00
 9.91653300E-01
 9.31868300E-01
 8.75170600E-01
 8.22066100E-01
 7.73002900E-01
 7.28364200E-01
 6.88461900E-01
 6.53531700E-01
 6.23729400E-01
 5.99128200E-01
 5.79717500E-01
 5.65403400E-01
 5.56009900E-01
 5.51281800E-01
 5.50888800E-01
 5.54431000E-01
 5.56368300E-01
 5.41065500E-01
 5.28636900E-01
 5.18876300E-01
 5.11534300E-01
 5.06322700E-01
 5.02919100E-01
 5.00971900E-01
 5.00106200E-01
 4.99929500E-01
 4.92424200E-01
 4.67171700E-01
 4.41919200E-01
 4.16666700E-01
 3.91414100E-01
 3.66161600E-01
 3.40909100E-01
 3.15656600E-01
 2.90404000E-01
 2.65151500E-01
 2.39899000E-01
 2.14646500E-01
 1.89393900E-01
 1.64141400E-01
 1.38888900E-01
 1.13636400E-01
 8.83838400E-02
 6.31313100E-02
 3.78787900E-02
 1.26262600E-02
 2.48737400E+00
 2.46212100E+00
 2.43686900E+00
 2.41161600E+00
 2.38636400E+00
 2.36111100E+00
 2.33585900E+00
 2.31060600E+00
 2.28535400E+00
 2.26010100E+00
 2.23484800E+00
 2.20959600E+00
 2.18434300E+00
 2.15909100E+00
 2.13383800E+00
 2.10858600E+00
 2.08333300E+00
 2.05808100E+00
 2.03282800E+00
 2.00757600E+00
 2.00007000E+00
 1.99989400E+00
 1.99902800E+00
 1.99708100E+00
 1.99367700E+00
 1.98846600E+00
 1.98112400E+00
 1.97136300E+00
 1.95893500E+00
 1.94363200E+00
 1.94556900E+00
 1.94911100E+00
 1.94871800E+00
 1.94399000E+00
 1.93459700E+00
 1.92028200E+00
 1.90087200E+00
 1.87627100E+00
 1.84646800E+00
 1.81153800E+00
 1.77163600E+00
 1.72699700E+00
 1.67793400E+00
 1.62482900E+00
 1.56813200E+00
 1.50834700E+00
 1.44603000E+00
 1.38177800E+00
 1.31621900E+00
 1.25000000E+00
 1.18378100E+00
 1.11822200E+00
 1.05397000E+00
 9.91653300E-01
 9.31868300E-01
 8.75170600E-01
 8.22066100E-01
 7.73002900E-01
 7.28364200E-01
 6.88461900E-01
 6.53531700E-01
 6.23729400E-01
 5.99128200E-01
 5.79717500E-01
 5.65403400E-01
 5.56009900E-01
 5.51281800E-01
 5.50888800E-01
 5.54431000E-01
 5.56368300E-01
 5.41065500E-01
 5.28636900E-01
 5.18876300E-01
 5.11534300E-01
 5.06322700E-01
 5.02919100E-01
 5.00971900E-01
 5.00106200E-01
 4.99929500E-01
 4.92424200E-01
 4.67171700E-01
 4.41919200E-01
 4.16666700E-01
 3.91414100E-01
 3.66161600E-01
 3.40909100E-01
 3.15656600E-01
 2.90404000E-01
 2.65151500E-01
 2.39899000E-01
 2.14646500E-01
 1.89393900E-01
 1.64141400E-01
 1.38888900E-01
 1.13636400E-01
 8.83838400E-02
 6.31313100E-02
 3.78787900E-02
 1.26262600E-02
 2.48737400E+00
 2.46212100E+00
 2.43686900E+00
 2.41161600E+00
 2.38636400E+00
 2.36111100E+00
 2.33585900E+00
 2.31060600E+00
 2.28535400E+00
 2.26010100E+00
 2.23484800E+00
 2.20959600E+00
 2.18434300E+00
 2.15909100E+00
 2.13383800E+00
 2.10858600E+00
 2.08333300E+00
 2.05808100E+00
 2.03282800E+00
 2.00757600E+00
 2.00007000E+00
 1.99989400E+00
 1.99902800E+00
 1.99708100E+00
 1.99367700E+00
 1.98846600E+00
 1.98112400E+00
 1.97136300E+00
 1.95893500E+00
 1.94363200E+00
 1.94556900E+00
 1.94911100E+00
 1.94871800E+00
 1.94399000E+00
 1.93459700E+00
 1.92028200E+00
 1.90087200E+00
 1.87627100E+00
 1.84646800E+00
 1.81153800E+00
 1.77163600E+00
 1.72699700E+00
 1.67793400E+00
 1.62482900E+00
 1.56813200E+00
 1.50834700E+00
 1.44603000E+00
 1.38177800E+00
 1.31621900E+00
 1.25000000E+00
 1.18378100E+00
 1.11822200E+00
 1.05397000E+00
 9.91653300E-01
 9.31868300E-01
 8.75170600E-01
 8.22066100E-01
 7.73002900E-01
 7.28364200E-01
 6.88461900E-01
 6.53531700E-01
 6.23729400E-01
 5.99128200E-01
 5.79717500E-01
 5.65403400E-01
 5.56009900E-01
 5.51281800E-01
 5.50888800E-01
 5.54431000E-01
 5.56368300E-01
 5.41065500E-01
 5.28636900E-01
 5.18876300E-01
 5.11534300E-01
 5.06322700E-01
 5.02919100E-01
 5.00971900E-01
 5.00106200E-01
 4.99929500E-01
 4.92424200E-01
 4.67171700E-01
 4.41919200E-01
 4.16666700E-01
 3.91414100E-01
 3.66161600E-01
 3.40909100E-01
 3.15656600E-01
 2.90404000E-01
 2.65151500E-01
 2.39899000E-01
 2.14646500E-01
 1.89393900E-01
 1.64141400E-01
 1.38888900E-01
 1.13636400E-01
 8.83838400E-02
 6.31313100E-02
 3.78787900E-02
 1.26262600E-02
 2.48737400E+00
 2.46212100E+00
 2.43686900E+00
 2.41161600E+00
 2.38636400E+00
 2.36111100E+00
 2.33585900E+00
 2.31060600E+00
 2.28535400E+00
 2.26010100E+00
 2.23484800E+00
 2.20959600E+00
 2.18434300E+00
 2.15909100E+00
 2.13383800E+00
 2.10858600E+00
 2.08333300E+00
 2.05808100E+00
 2.03282800E+00
 2.00757600E+00
 2.00007000E+00
 1.99989400E+00
 1.99902800E+00
 1.99708100E+00
 1.99367700E+00
 1.98846600E+00
 1.98112400E+00
 1.97136300E+00
 1.95893500E+00
 1.94363200E+00
 1.94556900E+00
 1.94911100E+00
 1.94871800E+00
 1.94399000E+00
 1.93459700E+00
 1.92028200E+00
 1.90087200E+00
 1.87627100E+00
 1.84646800E+00
 1.81153800E+00
 1.77163600E+00
 1.72699700E+00
 1.67793400E+00
 1.62482900E+00
 1.56813200E+00
 1.50834700E+00
 1.44603000E+00
 1.38177800E+00
 1.31621900E+00
 1.25000000E+00
 1.18378100E+00
 1.11822200E+00
 1.05397000E+00
 9.91653300E-01
 9.31868300E-01
 8.75170600E-01
 8.22066100E-01
 7.73002900E-01
 7.28364200E-01
 6.88461900E-01
 6.53531700E-01
 6.23729400E-01
 5.99128200E-01
 5.79717500E-01
 5.65403400E-01
 5.56009900E-01
 5.51281800E-01
 5.50888800E-01
 5.54431000E-01
 5.56368300E-01
 5.41065500E-01
 5.28636900E-01
 5.18876300E-01
 5.11534300E-01
 5.06322700E-01
 5.02919100E-01
 5.00971900E-01
 5.00106200E-01
 4.99929500E-01
 4.92424200E-01
 4.67171700E-01
 4.41919200E-01
 4.16666700E-01
 3.91414100E-01
 3.66161600E-01
 3.40909100E-01
 3.15656600E-01
 2.90404000E-01
 2.65151500E-01
 2.39899000E-01
 2.14646500E-01
 1.89393900E-01
 1.64141400E-01
 1.38888900E-01
 1.13636400E-01
 8.83838400E-02
 6.31313100E-02
 3.78787900E-02
 1.26262600E-02
 2.48737400E+00
 2.46212100E+00
 2.43686900E+00
 2.41161600E+00
 2.38636400E+00
 2.36111100E+00
 2.33585900E+00
 2.31060600E+00
 2.28535400E+00
 2.26010100E+00
 2.23484800E+00
 2.20959600E+00
 2.18434300E+00
 2.15909100E+00
 2.13383800E+00
 2.10858600E+00
 2.08333300E+00
 2.05808100E+00
 2.03282800E+00
 2.00757600E+00
 2.00007000E+00
 1.99989400E+00
 1.99902800E+00
 1.99708100E+00
 1.99367700E+00
 1.98846600E+00
 1.98112400E+00
 1.97136300E+00
 1.95893500E+00
 1.94363200E+00
 1.94556900E+00
 1.94911100E+00
 1.94871800E+00
 1.94399000E+00
 1.93459700E+00
 1.92028200E+00
 1.90087200E+00
 1.87627100E+00
 1.84646800E+00
 1.81153800E+00
 1.77163600E+00
 1.72699700E+00
 1.67793400E+00
 1.62482900E+00
 1.56813200E+00
 1.50834700E+00
 1.44603000E+00
 1.38177800E+00
 1.31621900E+00
 1.25000000E+00
 1.18378100E+00
 1.11822200E+00
 1.05397000E+00
 9.91653300E-01
 9.31868300E-01
 8.75170600E-01
 8.22066100E-01
 7.73002900E-01
 7.28364200E-01
 6.88461900E-01
 6.53531700E-01
 6.23729400E-01
 5.99128200E-01
 5.79717500E-01
 5.65403400E-01
 5.56009900E-01
 5.51281800E-01
 5.50888800E-01
 5.54431000E-01
 5.56368300E-01
 5.41065500E-01
 5.28636900E-01
 5.18876300E-01
 5.11534300E-01
 5.06322700E-01
 5.02919100E-01
 5.00971900E-01
 5.00106200E-01
 4.99929500E-01
 4.92424200E-01
 4.67171700E-01
 4.41919200E-01
 4.16666700E-01
 3.91414100E-01
 3.66161600E-01
 3.40909100E-01
 3.15656600E-01
 2.90404000E-01
 2.65151500E-01
 2.39899000E-01
 2.14646500E-01
 1.89393900E-01
 1.64141400E-01
 1.38888900E-01
 1.13636400E-01
 8.83838400E-02
 6.31313100E-02
 3.78787900E-02
 1.26262600E-02
SCALARS         h               double 1       
LOOKUP_TABLE default           
 1.03327411E+00
 1.03401780E+00
 1.03786093E+00
 1.04203051E+00
 1.04650088E+00
 1.05128827E+00
 1.05640655E+00
 1.06187212E+00
 1.06769829E+00
 1.07390064E+00
 1.08049228E+00
 1.08748497E+00
 1.09489221E+00
 1.10272352E+00
 1.11099003E+00
 1.11969889E+00
 1.12885892E+00
 1.13847440E+00
 1.14855118E+00
 1.15909834E+00
 1.15400026E+00
 1.13919327E+00
 1.12308386E+00
 1.10719495E+00
 1.09190237E+00
 1.07756997E+00
 1.06456396E+00
 1.05324915E+00
 1.04398966E+00
 1.03735962E+00
 1.01476158E+00
 9.84810990E-01
 9.56831684E-01
 9.29710236E-01
 9.04292644E-01
 8.80741991E-01
 8.59171949E-01
 8.39675895E-01
 8.22335866E-01
 8.07232677E-01
 7.94463832E-01
 7.84159465E-01
 7.76497910E-01
 7.71724878E-01
 7.70161525E-01
 7.72205728E-01
 7.78302999E-01
 7.88881626E-01
 8.04256539E-01
 8.24516805E-01
 8.49431878E-01
 8.78424197E-01
 9.10620788E-01
 9.44952490E-01
 9.80270521E-01
 1.01544311E+00
 1.04941993E+00
 1.08126652E+00
 1.11017935E+00
 1.13548814E+00
 1.15665167E+00
 1.17325067E+00
 1.18497978E+00
 1.19163872E+00
 1.19312265E+00
 1.18941231E+00
 1.18056381E+00
 1.16701702E+00
 1.14744172E+00
 1.12857558E+00
 1.12492662E+00
 1.12103322E+00
 1.11406552E+00
 1.10407882E+00
 1.09118354E+00
 1.07550761E+00
 1.05718479E+00
 1.03633976E+00
 1.01306610E+00
 9.94227722E-01
 9.91016232E-01
 9.91291877E-01
 9.91661367E-01
 9.92065698E-01
 9.92506652E-01
 9.92987509E-01
 9.93512059E-01
 9.94084065E-01
 9.94707511E-01
 9.95386908E-01
 9.96127106E-01
 9.96933403E-01
 9.97811261E-01
 9.98766762E-01
 9.99806329E-01
 1.00093698E+00
 1.00216634E+00
 1.00350250E+00
 1.00498728E+00
 1.03327411E+00
 1.03401780E+00
 1.03786093E+00
 1.04203051E+00
 1.04650088E+00
 1.05128827E+00
 1.05640655E+00
 1.06187212E+00
 1.06769829E+00
 1.07390064E+00
 1.08049228E+00
 1.08748497E+00
 1.09489221E+00
 1.10272352E+00
 1.11099003E+00
 1.11969889E+00
 1.12885892E+00
 1.13847440E+00
 1.14855118E+00
 1.15909834E+00
 1.15400026E+00
 1.13919327E+00
 1.12308386E+00
 1.10719495E+00
 1.09190237E+00
 1.07756997E+00
 1.06456396E+00
 1.05324915E+00
 1.04398966E+00
 1.03735962E+00
 1.01476158E+00
 9.84810990E-01
 9.56831684E-01
 9.29710236E-01
 9.04292644E-01
 8.80741991E-01
 8.59171949E-01
 8.39675895E-01
 8.22335866E-01
 8.07232677E-01
 7.94463832E-01
 7.84159465E-01
 7.76497910E-01
 7.71724878E-01
 7.70161525E-01
 7.72205728E-01
 7.78302999E-01
 7.88881626E-01
 8.04256539E-01
 8.24516805E-01
 8.49431878E-01
 8.78424197E-01
 9.10620788E-01
 9.44952490E-01
 9.80270521E-01
 1.01544311E+00
 1.04941993E+00
 1.08126652E+00
 1.11017935E+00
 1.13548814E+00
 1.15665167E+00
 1.17325067E+00
 1.18497978E+00
 1.19163872E+00
 1.19312265E+00
 1.18941231E+00
 1.18056381E+00
 1.16701702E+00
 1.14744172E+00
 1.12857558E+00
 1.12492662E+00
 1.12103322E+00
 1.11406552E+00
 1.10407882E+00
 1.09118354E+00
 1.07550761E+00
 1.05718479E+00
 1.03633976E+00
 1.01306610E+00
 9.94227722E-01
 9.91016232E-01
 9.91291877E-01
 9.91661367E-01
 9.92065698E-01
 9.92506652E-01
 9.92987509E-01
 9.93512059E-01
 9.94084065E-01
 9.94707511E-01
 9.95386908E-01
 9.96127106E-01
 9.96933403E-01
 9.97811261E-01
 9.98766762E-01
 9.99806329E-01
 1.00093698E+00
 1.00216634E+00
 1.00350250E+00
 1.00498728E+00
 1.03327411E+00
 1.03401780E+00
 1.03786093E+00
 1.04203051E+00
 1.04650088E+00
 1.05128827E+00
 1.05640655E+00
 1.06187212E+00
 1.06769829E+00
 1.07390064E+00
 1.08049228E+00
 1.08748497E+00
 1.09489221E+00
 1.10272352E+00
 1.11099003E+00
 1.11969889E+00
 1.12885892E+00
 1.13847440E+00
 1.14855118E+00
 1.15909834E+00
 1.15400026E+00
 1.13919327E+00
 1.12308386E+00
 1.10719495E+00
 1.09190237E+00
 1.07756997E+00
 1.06456396E+00
 1.05324915E+00
 1.04398966E+00
 1.03735962E+00
 1.01476158E+00
 9.84810990E-01
 9.56831684E-01
 9.29710236E-01
 9.04292644E-01
 8.80741991E-01
 8.59171949E-01
 8.39675895E-01
 8.22335866E-01
 8.07232677E-01
 7.94463832E-01
 7.84159465E-01
 7.76497910E-01
 7.71724878E-01
 7.70161525E-01
 7.72205728E-01
 7.78302999E-01
 7.88881626E-01
 8.04256539E-01
 8.24516805E-01
 8.49431878E-01
 8.78424197E-01
 9.10620788E-01
 9.44952490E-01
 9.80270521E-01
 1.01544311E+00
 1.04941993E+00
 1.08126652E+00
 1.11017935E+00
 1.13548814E+00
 1.15665167E+00
 1.17325067E+00
 1.18497978E+00
 1.19163872E+00
 1.19312265E+00
 1.18941231E+00
 1.18056381E+00
 1.16701702E+00
 1.14744172E+00
 1.12857558E+00
 1.12492662E+00
 1.12103322E+00
 1.11406552E+00
 1.10407882E+00
 1.09118354E+00
 1.07550761E+00
 1.05718479E+00
 1.03633976E+00
 1.01306610E+00
 9.94227722E-01
 9.91016232E-01
 9.91291877E-01
 9.91661367E-01
 9.92065698E-01
 9.92506652E-01
 9.92987509E-01
 9.93512059E-01
 9.94084065E-01
 9.94707511E-01
 9.95386908E-01
 9.96127106E-01
 9.96933403E-01
 9.97811261E-01
 9.98766762E-01
 9.99806329E-01
 1.00093698E+00
 1.00216634E+00
 1.00350250E+00
 1.00498728E+00
 1.03327411E+00
 1.03401780E+00
 1.03786093E+00
 1.04203051E+00
 1.04650088E+00
 1.05128827E+00
 1.05640655E+00
 1.06187212E+00
 1.06769829E+00
 1.07390064E+00
 1.08049228E+00
 1.08748497E+00
 1.09489221E+00
 1.10272352E+00
 1.11099003E+00
 1.11969889E+00
 1.12885892E+00
 1.13847440E+00
 1.14855118E+00
 1.15909834E+00
 1.15400026E+00
 1.13919327E+00
 1.12308386E+00
 1.10719495E+00
 1.09190237E+00
 1.07756997E+00
 1.06456396E+00
 1.05324915E+00
 1.04398966E+00
 1.03735962E+00
 1.01476158E+00
 9.84810990E-01
 9.56831684E-01
 9.29710236E-01
 9.04292644E-01
 8.80741991E-01
 8.59171949E-01
 8.39675895E-01
 8.22335866E-01
 8.07232677E-01
 7.94463832E-01
 7.84159465E-01
 7.76497910E-01
 7.71724878E-01
 7.70161525E-01
 7.72205728E-01
 7.78302999E-01
 7.88881626E-01
 8.04256539E-01
 8.24516805E-01